--- PyADF *** new job *** PyADF ---
 operating system is UNIX !
 hostname is nitrogen02

 ridft (nitrogen02) : TURBOMOLE V7.1 ( 20661 ) 10 Jun 2016 at 08:56:48
 Copyright (C) 2016 TURBOMOLE GmbH, Karlsruhe


    2020-12-01 10:44:58.508 



                                  r i d f t

                        DFT program with RI approximation 
                                for coulomb part 




                                                 
                                 References:     
                                                 
          TURBOMOLE:                             
              R. Ahlrichs, M. Baer, M. Haeser, H. Horn, and
              C. Koelmel
              Electronic structure calculations on workstation
              computers: the program system TURBOMOLE
              Chem. Phys. Lett. 162: 165 (1989)
          Density Functional:                              
              O. Treutler and R. Ahlrichs                      
              Efficient Molecular Numerical Integration Schemes
              J. Chem. Phys. 102: 346 (1995)                   
          Parallel Version:                                
              Performance of parallel TURBOMOLE for Density    
              Functional Calculations                          
              M. v. Arnim and R. Ahlrichs                      
              J. Comp. Chem. 19: 1746 (1998)                   
          RI-J Method:                                     
              Auxiliary Basis Sets to approximate Coulomb      
              Potentials                                       
              Chem. Phys. Lett. 240: 283 (1995)                
              K. Eichkorn, O. Treutler, H. Oehm, M. Haeser     
              and R. Ahlrichs                                  
              Chem. Phys. Lett. 242: 652 (1995)                
                                                           
              Auxiliary Basis Sets for Main Row Atoms and their
              Use to approximate Coulomb Potentials            
              K. Eichkorn, F. Weigend, O. Treutler and         
              R. Ahlrichs                                      
              Theo. Chem. Acc. 97: 119 (1997)                   
                                                           
              Accurate Coulomb-fitting basis sets for H to Rn 
              F. Weigend                                        
              Phys. Chem. Chem. Phys. 8: 1057 (2006)            
                                                           
          Multipole accelerated RI-J (MARI-J):             
              Fast evaluation of the Coulomb potential for     
              electron densities using multipole accelerated   
              resolution of identity approximation             
              M. Sierka, A. Hogekamp and R. Ahlrichs           
              J. Chem. Phys. 118: 9136 (2003)                  
          RI-JK Method:                                     
              A fully direct RI-HF algorithm: Implementation,
              optimised auxiliary basis sets, demonstration of
              accuracy and efficiency                         
              F. Weigend                                      
              Phys. Chem. Chem. Phys. 4: 4285 (2002)           
          Two-component HF and DFT with spin-orbit coupling:  
              Self-consistent treatment of spin-orbit         
              interactions with efficient Hartree-Fock and    
              density functional methods                      
              M. K. Armbruster, F. Weigend, C. van Wüllen and 
              W. Klopper                                      
              Phys. Chem. Chem. Phys. 10: 1748 (2008)         
          Relativistic all-electron 2c calculations           
              An efficient implementation of two-component    
              relativistic exact-decoupling methods for large 
              molecules                                       
              D. Peng, N. Middendorf, F. Weigend, M. Reiher   
              J. Chem. Phys. 138, 184105 (2013)               
                                         


 


              +--------------------------------------------------+
              |      general information about current run       |
              +--------------------------------------------------+

 
 B-P86 functional
 exchange:    LDA + Becke (B88)
 correlation: LDA (VWN) + Perdew (P86)
 A DFT calculation using the RI-J approximation will be carried out.
 Allocatable memory for RI due to $ricore (MB):        2000


              +--------------------------------------------------+
              | Atomic coordinate, charge and isotop information |
              +--------------------------------------------------+

                    atomic coordinates            atom    charge  isotop
         -5.60383183   -0.29007195    0.04992209    o      8.000     0
         -5.30364047   -0.20005256   -1.69868911    h      1.000     0
         -6.74868763   -1.72919812    0.17359444    h      1.000     0
 
       center of nuclear mass  :   -5.65109135   -0.36555535   -0.04099429
       center of nuclear charge:   -5.68829827   -0.42498263   -0.11257179

              +--------------------------------------------------+
              |               basis set information              |
              +--------------------------------------------------+

              we will work with the 1s 3p 5d 7f 9g ... basis set
              ...i.e. with spherical basis functions...

   type   atoms  prim   cont   basis
   ---------------------------------------------------------------------------
    o        1     24     14   def2-SVP   [3s2p1d|7s4p1d]
    h        2      7      5   def2-SVP   [2s1p|4s1p]
   ---------------------------------------------------------------------------
   total:    3     38     24
   ---------------------------------------------------------------------------

   total number of primitive shells          :   17
   total number of contracted shells         :   12
   total number of cartesian basis functions :   25
   total number of SCF-basis functions       :   24


 integral neglect threshold       :  0.13E-08
 integral storage threshold THIZE :  0.10E-04
 integral storage threshold THIME :         5

 RI-J AUXILIARY BASIS SET information:

              we will work with the 1s 3p 5d 7f 9g ... basis set
              ...i.e. with spherical basis functions...

   type   atoms  prim   cont   basis
   ---------------------------------------------------------------------------
    o        1     70     49   def2-SVP   [6s4p3d1f1g|12s5p4d2f1g]
    h        2     16     11   def2-SVP   [3s1p1d|5s2p1d]
   ---------------------------------------------------------------------------
   total:    3    102     71
   ---------------------------------------------------------------------------

   total number of primitive shells          :   32
   total number of contracted shells         :   25
   total number of cartesian basis functions :   85
   total number of SCF-basis functions       :   71


 symmetry group of the molecule :   c1 

 the group has the following generators :
   c1(z)

    1 symmetry operations found

 there are 1 real representations :   a   

 maximum number of shells which are related by symmetry :  1


    mo occupation :
   irrep   mo's   occupied
    a       24        5
 
 number of basis functions   :           24
 number of occupied orbitals :            5
 
  
           ------------------
           density functional
           ------------------
 B-P86 functional
 exchange:    LDA + Becke (B88)
 correlation: LDA (VWN) + Perdew (P86)
 iterations will be done with small grid
  
 spherical integration : Lebedev's spherical grid
 spherical gridsize    :           4
    i.e. gridpoints    :         434
 value for diffuse not defined
 radial integration    : Chebyshev 2nd kind (scaling 3)
 radial gridsize       :           6
 integration cells     :           3
 partition function    : becke
 partition sharpness   :           3
  

 biggest AO integral is expected to be     4.776656448
  
           ------------------------
               RI-J - INFORMATION
           ------------------------
 Contributions to RI integral batches: 
  neglected integral batches:           0
  direct contribution:                  0
  memory contribution:          78
 Memory core needed for (P|Q) and Cholesky      1 MByte
 Memory core minimum needed except of (P|Q)     1 MByte
 Total minimum memory core needed (sum)         1 MByte
  
 ****************************************
 Memory allocated for RI-J     1 MByte
 ****************************************
                                            

          ------------------------
          nuclear repulsion energy  :   9.19884827048    
          ------------------------

 
          -----------------
          -S,T+V- integrals
          -----------------

 1e-integrals will be neglected if expon. factor < 0.133678E-09
 
   Difference densities algorithm switched on.
   The maximal number of linear combinations of
   difference densities is          20 .

 DIIS switched on: error vector is FDS-SDF
 Max. Iterations for DIIS is     :   4
 DIIS matrix (see manual) 
    Scaling factor of diagonals  :  1.200
    threshold for scaling factor :  0.000

 scf convergence criterion : increment of total energy < .1000000D-05
                  and increment of one-electron energy < .1000000D-02


 <geterg> : there is no data group $energy 

  MOs are in ASCII format !


 automatic virtual orbital shift switched on 
      shift if e(lumo)-e(homo) < 0.10000000    


 reading orbital data $scfmo  from file mos
 orbital characterization : expanded
 mo provided and orthogonalized by Cholesky decomposition

 DSCF restart information will be dumped onto file mos


 Starting SCF iterations

          Overall gridpoints after grid construction =          7368

 ITERATION  ENERGY          1e-ENERGY        2e-ENERGY     NORM[dD(SAO)]  TOL
   1  -76.139385940228    -124.31882465     38.980590442    0.000D+00 0.133D-08
                            Exc = -9.50385085548     Coul =  48.4844412975    
                              N = 9.9999819134    
                            current damping = 0.700
 
          max. resid. norm for Fia-block=  2.848D-01 for orbital      4a         
          max. resid. fock norm         =  1.282D+00 for orbital     18a         

 ITERATION  ENERGY          1e-ENERGY        2e-ENERGY     NORM[dD(SAO)]  TOL
   2  -76.322319703496    -123.07599166     37.554823690    0.460D+00 0.881D-09
                            Exc = -9.32458993376     Coul =  46.8794136236    
                              N = 9.9999823315    
                            current damping = 0.650
 
          Norm of current diis error: 0.49255    
          max. resid. norm for Fia-block=  1.246D-01 for orbital      1a         
          max. resid. fock norm         =  1.310D-01 for orbital      6a         

 ITERATION  ENERGY          1e-ENERGY        2e-ENERGY     NORM[dD(SAO)]  TOL
   3  -76.352829776731    -123.29541340     37.743735348    0.175D+00 0.666D-09
                            Exc = -9.37191589832     Coul =  47.1156512463    
                              N = 9.9999822318    
                            current damping = 0.600
 
          Norm of current diis error: 0.23403    
          max. resid. norm for Fia-block=  4.902D-02 for orbital      1a         
          max. resid. fock norm         =  5.197D-02 for orbital      6a         

 ITERATION  ENERGY          1e-ENERGY        2e-ENERGY     NORM[dD(SAO)]  TOL
   4  -76.361004129453    -123.04218862     37.482336219    0.631D-01 0.575D-09
                            Exc = -9.34758844638     Coul =  46.8299246659    
                              N = 9.9999819571    
                            current damping = 0.650
 
          Norm of current diis error: 0.79570E-01
          max. resid. norm for Fia-block=  1.892D-02 for orbital      1a         
          max. resid. fock norm         =  2.217D-02 for orbital      6a         

 ITERATION  ENERGY          1e-ENERGY        2e-ENERGY     NORM[dD(SAO)]  TOL
   5  -76.362150658224    -123.10890033     37.547901400    0.133D-01 0.531D-09
                            Exc = -9.36114659556     Coul =  46.9090479954    
                              N = 9.9999819093    
                            current damping = 0.700
 
          Norm of current diis error: 0.32987E-01
          max. resid. norm for Fia-block=  7.323D-03 for orbital      1a         
          max. resid. fock norm         =  8.419D-03 for orbital      6a         
          mo-orthogonalization: Cholesky decomposition

 ITERATION  ENERGY          1e-ENERGY        2e-ENERGY     NORM[dD(SAO)]  TOL
   6  -76.362353376677    -123.08358318     37.522381533    0.194D-02 0.502D-09
                            Exc = -9.35946310248     Coul =  46.8818446355    
                              N = 9.9999818668    
                            current damping = 0.750
 
          Norm of current diis error: 0.12685E-01
          max. resid. norm for Fia-block=  3.059D-03 for orbital      1a         
          max. resid. fock norm         =  3.616D-03 for orbital      6a         

 ITERATION  ENERGY          1e-ENERGY        2e-ENERGY     NORM[dD(SAO)]  TOL
   7  -76.362384884918    -123.08763548     37.526402321    0.243D-03 0.483D-09
                            Exc = -9.36070996999     Coul =  46.8871122911    
                              N = 9.9999818534    
                            current damping = 0.800
 
          Norm of current diis error: 0.55014E-02
          max. resid. norm for Fia-block=  1.295D-03 for orbital      1a         
          max. resid. fock norm         =  1.524D-03 for orbital      6a         

 ITERATION  ENERGY          1e-ENERGY        2e-ENERGY     NORM[dD(SAO)]  TOL
   8  -76.362390836552    -123.08589318     37.524654077    0.359D-04 0.470D-09
                            Exc = -9.36076776136     Coul =  46.8854218386    
                              N = 9.9999818468    
                            current damping = 0.850
 
          Norm of current diis error: 0.24023E-02
          max. resid. norm for Fia-block=  5.817D-04 for orbital      1a         
          max. resid. fock norm         =  6.980D-04 for orbital      6a         

 ENERGY CONVERGED !

          Overall gridpoints after grid construction =         28301

 ITERATION  ENERGY          1e-ENERGY        2e-ENERGY     NORM[dD(SAO)]  TOL
   9  -76.362391925427    -123.08700425     37.525764058    0.719D-05 0.459D-09
                            Exc = -9.36104254775     Coul =  46.8868066056    
                              N = 10.000000079    
                            current damping = 0.900
 
          Norm of current diis error: 0.11336E-02
          max. resid. norm for Fia-block=  2.627D-04 for orbital      1a         
          max. resid. fock norm         =  3.098D-04 for orbital      6a         

 End of SCF iterations

   convergence criteria satisfied after    9 iterations


                  ------------------------------------------ 
                 |  total energy      =    -76.36239192543  |
                  ------------------------------------------ 
                 :  kinetic energy    =     75.83976921367  :
                 :  potential energy  =   -152.20216113910  :
                 :  virial theorem    =      1.99315601962  :
                 :  wavefunction norm =      1.00000000000  :
                  .......................................... 


 <geterg> : there is no data group $energy 


 <skperg> : $end is missing 


 orbitals $scfmo  will be written to file mos

    irrep                  1a          2a          3a          4a          5a   
 eigenvalues H        -18.75900    -0.89830    -0.46081    -0.31415    -0.23431
            eV        -510.4625    -24.4442    -12.5393     -8.5486     -6.3760
 occupation              2.0000      2.0000      2.0000      2.0000      2.0000 

    irrep                  6a          7a          8a          9a         10a   
 eigenvalues H          0.03375     0.11182     0.51486     0.58930     0.86250
            eV           0.9184      3.0427     14.0101     16.0357     23.4699
 
 
 
 
 ==============================================================================
                           electrostatic moments
 ==============================================================================

 reference point for electrostatic moments:    0.00000   0.00000   0.00000

 
              nuc           elec       ->  total
 ------------------------------------------------------------------------------
                          charge      
 ------------------------------------------------------------------------------
          10.000000     -10.000000      -0.000000
 
 ------------------------------------------------------------------------------
                       dipole moment  
 ------------------------------------------------------------------------------
   x     -56.882983      56.599312      -0.283671
   y      -4.249826       3.793564      -0.456262
   z      -1.125718       0.561087      -0.564631
 
   | dipole moment | =     0.7794 a.u. =     1.9810 debye 
 
 ------------------------------------------------------------------------------
                     quadrupole moment
 ------------------------------------------------------------------------------
  xx     324.896836    -326.259806      -1.362970
  yy       3.703281      -7.680382      -3.977101
  zz       2.935617      -6.744401      -3.808783
  xy      25.734940     -22.321706       3.413234
  xz       5.599662      -2.797743       2.801918
  yz      -0.076200       0.014965      -0.061235
 
     1/3  trace=      -3.049618
     anisotropy=       8.058287
 
 ==============================================================================
 


    ------------------------------------------------------------------------
         total  cpu-time :   0.24 seconds
         total wall-time :   0.24 seconds
    ------------------------------------------------------------------------

   ****  ridft : all done  ****


    2020-12-01 10:44:58.744 

--- PyADF *** new job *** PyADF ---
 operating system is UNIX !
 hostname is nitrogen02

 ridft (nitrogen02) : TURBOMOLE V7.1 ( 20661 ) 10 Jun 2016 at 08:56:48
 Copyright (C) 2016 TURBOMOLE GmbH, Karlsruhe


    2020-12-01 10:44:58.971 



                                  r i d f t

                        DFT program with RI approximation 
                                for coulomb part 




                                                 
                                 References:     
                                                 
          TURBOMOLE:                             
              R. Ahlrichs, M. Baer, M. Haeser, H. Horn, and
              C. Koelmel
              Electronic structure calculations on workstation
              computers: the program system TURBOMOLE
              Chem. Phys. Lett. 162: 165 (1989)
          Density Functional:                              
              O. Treutler and R. Ahlrichs                      
              Efficient Molecular Numerical Integration Schemes
              J. Chem. Phys. 102: 346 (1995)                   
          Parallel Version:                                
              Performance of parallel TURBOMOLE for Density    
              Functional Calculations                          
              M. v. Arnim and R. Ahlrichs                      
              J. Comp. Chem. 19: 1746 (1998)                   
          RI-J Method:                                     
              Auxiliary Basis Sets to approximate Coulomb      
              Potentials                                       
              Chem. Phys. Lett. 240: 283 (1995)                
              K. Eichkorn, O. Treutler, H. Oehm, M. Haeser     
              and R. Ahlrichs                                  
              Chem. Phys. Lett. 242: 652 (1995)                
                                                           
              Auxiliary Basis Sets for Main Row Atoms and their
              Use to approximate Coulomb Potentials            
              K. Eichkorn, F. Weigend, O. Treutler and         
              R. Ahlrichs                                      
              Theo. Chem. Acc. 97: 119 (1997)                   
                                                           
              Accurate Coulomb-fitting basis sets for H to Rn 
              F. Weigend                                        
              Phys. Chem. Chem. Phys. 8: 1057 (2006)            
                                                           
          Multipole accelerated RI-J (MARI-J):             
              Fast evaluation of the Coulomb potential for     
              electron densities using multipole accelerated   
              resolution of identity approximation             
              M. Sierka, A. Hogekamp and R. Ahlrichs           
              J. Chem. Phys. 118: 9136 (2003)                  
          RI-JK Method:                                     
              A fully direct RI-HF algorithm: Implementation,
              optimised auxiliary basis sets, demonstration of
              accuracy and efficiency                         
              F. Weigend                                      
              Phys. Chem. Chem. Phys. 4: 4285 (2002)           
          Two-component HF and DFT with spin-orbit coupling:  
              Self-consistent treatment of spin-orbit         
              interactions with efficient Hartree-Fock and    
              density functional methods                      
              M. K. Armbruster, F. Weigend, C. van Wüllen and 
              W. Klopper                                      
              Phys. Chem. Chem. Phys. 10: 1748 (2008)         
          Relativistic all-electron 2c calculations           
              An efficient implementation of two-component    
              relativistic exact-decoupling methods for large 
              molecules                                       
              D. Peng, N. Middendorf, F. Weigend, M. Reiher   
              J. Chem. Phys. 138, 184105 (2013)               
                                         


 


              +--------------------------------------------------+
              |      general information about current run       |
              +--------------------------------------------------+

 
 B-P86 functional
 exchange:    LDA + Becke (B88)
 correlation: LDA (VWN) + Perdew (P86)
 A DFT calculation using the RI-J approximation will be carried out.
 Allocatable memory for RI due to $ricore (MB):        2000


              +--------------------------------------------------+
              | Atomic coordinate, charge and isotop information |
              +--------------------------------------------------+

                    atomic coordinates            atom    charge  isotop
         -5.62112622   -0.31106888    0.05621941    o      8.000     0
         -5.30035866   -0.20589887   -1.75860616    h      1.000     0
         -6.47750340   -1.39010728    0.13356107    h      1.000     0
 
       center of nuclear mass  :   -5.65109392   -0.36555745   -0.04099395
       center of nuclear charge:   -5.67468718   -0.40845572   -0.11752898

              +--------------------------------------------------+
              |               basis set information              |
              +--------------------------------------------------+

              we will work with the 1s 3p 5d 7f 9g ... basis set
              ...i.e. with spherical basis functions...

   type   atoms  prim   cont   basis
   ---------------------------------------------------------------------------
    o        1     24     14   def2-SVP   [3s2p1d|7s4p1d]
    h        2      7      5   def2-SVP   [2s1p|4s1p]
   ---------------------------------------------------------------------------
   total:    3     38     24
   ---------------------------------------------------------------------------

   total number of primitive shells          :   17
   total number of contracted shells         :   12
   total number of cartesian basis functions :   25
   total number of SCF-basis functions       :   24


 integral neglect threshold       :  0.13E-08
 integral storage threshold THIZE :  0.10E-04
 integral storage threshold THIME :         5

 RI-J AUXILIARY BASIS SET information:

              we will work with the 1s 3p 5d 7f 9g ... basis set
              ...i.e. with spherical basis functions...

   type   atoms  prim   cont   basis
   ---------------------------------------------------------------------------
    o        1     70     49   def2-SVP   [6s4p3d1f1g|12s5p4d2f1g]
    h        2     16     11   def2-SVP   [3s1p1d|5s2p1d]
   ---------------------------------------------------------------------------
   total:    3    102     71
   ---------------------------------------------------------------------------

   total number of primitive shells          :   32
   total number of contracted shells         :   25
   total number of cartesian basis functions :   85
   total number of SCF-basis functions       :   71


 symmetry group of the molecule :   c1 

 the group has the following generators :
   c1(z)

    1 symmetry operations found

 there are 1 real representations :   a   

 maximum number of shells which are related by symmetry :  1


    mo occupation :
   irrep   mo's   occupied
    a       24        5
 
 number of basis functions   :           24
 number of occupied orbitals :            5
 
  
           ------------------
           density functional
           ------------------
 B-P86 functional
 exchange:    LDA + Becke (B88)
 correlation: LDA (VWN) + Perdew (P86)
 iterations will be done with small grid
  
 spherical integration : Lebedev's spherical grid
 spherical gridsize    :           4
    i.e. gridpoints    :         434
 value for diffuse not defined
 radial integration    : Chebyshev 2nd kind (scaling 3)
 radial gridsize       :           6
 integration cells     :           3
 partition function    : becke
 partition sharpness   :           3
  

 biggest AO integral is expected to be     4.776656448
  
           ------------------------
               RI-J - INFORMATION
           ------------------------
 Contributions to RI integral batches: 
  neglected integral batches:           0
  direct contribution:                  0
  memory contribution:          78
 Memory core needed for (P|Q) and Cholesky      1 MByte
 Memory core minimum needed except of (P|Q)     1 MByte
 Total minimum memory core needed (sum)         1 MByte
  
 ****************************************
 Memory allocated for RI-J     1 MByte
 ****************************************
                                            

          ------------------------
          nuclear repulsion energy  :   10.5282565846    
          ------------------------

 
          -----------------
          -S,T+V- integrals
          -----------------

 1e-integrals will be neglected if expon. factor < 0.133678E-09
 
   Difference densities algorithm switched on.
   The maximal number of linear combinations of
   difference densities is          20 .

 DIIS switched on: error vector is FDS-SDF
 Max. Iterations for DIIS is     :   4
 DIIS matrix (see manual) 
    Scaling factor of diagonals  :  1.200
    threshold for scaling factor :  0.000

 scf convergence criterion : increment of total energy < .1000000D-05
                  and increment of one-electron energy < .1000000D-02


 <geterg> : there is no data group $energy 

  MOs are in ASCII format !


 automatic virtual orbital shift switched on 
      shift if e(lumo)-e(homo) < 0.10000000    


 reading orbital data $scfmo  from file mos
 orbital characterization : scfconv=6

 DSCF restart information will be dumped onto file mos


 Starting SCF iterations

          Overall gridpoints after grid construction =          7363

 ITERATION  ENERGY          1e-ENERGY        2e-ENERGY     NORM[dD(SAO)]  TOL
   1  -76.240394425979    -124.93197601     38.163325000    0.000D+00 0.133D-08
                            Exc = -9.44145440989     Coul =  47.6047794098    
                              N = 10.000002779    
                            current damping = 0.700
 
          max. resid. norm for Fia-block=  9.318D-02 for orbital      3a         
          max. resid. fock norm         =  3.524D-01 for orbital     18a         

 ITERATION  ENERGY          1e-ENERGY        2e-ENERGY     NORM[dD(SAO)]  TOL
   2  -76.259926511100    -125.39404738     38.605864284    0.223D+00 0.845D-09
                            Exc = -9.50442624616     Coul =  48.1102905306    
                              N = 10.000002565    
                            current damping = 0.650
 
          Norm of current diis error: 0.12481    
          max. resid. norm for Fia-block=  3.264D-02 for orbital      2a         
          max. resid. fock norm         =  1.400D-01 for orbital     24a         

 ITERATION  ENERGY          1e-ENERGY        2e-ENERGY     NORM[dD(SAO)]  TOL
   3  -76.261880510701    -125.14551622     38.355379121    0.705D-01 0.687D-09
                            Exc = -9.47098044960     Coul =  47.8263595709    
                              N = 10.000002566    
                            current damping = 0.600
 
          Norm of current diis error: 0.62548E-01
          max. resid. norm for Fia-block=  1.204D-02 for orbital      3a         
          max. resid. fock norm         =  5.754D-02 for orbital     24a         

 ITERATION  ENERGY          1e-ENERGY        2e-ENERGY     NORM[dD(SAO)]  TOL
   4  -76.262388255197    -125.25728863     38.466643787    0.111D-01 0.633D-09
                            Exc = -9.48625349343     Coul =  47.9528972809    
                              N = 10.000002572    
                            current damping = 0.650
 
          Norm of current diis error: 0.14101E-01
          max. resid. norm for Fia-block=  3.609D-03 for orbital      2a         
          max. resid. fock norm         =  2.150D-02 for orbital     24a         

 ITERATION  ENERGY          1e-ENERGY        2e-ENERGY     NORM[dD(SAO)]  TOL
   5  -76.262421585126    -125.26049836     38.469820188    0.168D-02 0.593D-09
                            Exc = -9.48672071941     Coul =  47.9565409076    
                              N = 10.000002572    
                            current damping = 0.500
 
          Norm of current diis error: 0.51126E-02
          max. resid. norm for Fia-block=  1.389D-03 for orbital      2a         
          max. resid. fock norm         =  8.606D-03 for orbital     24a         
          mo-orthogonalization: Cholesky decomposition

 ITERATION  ENERGY          1e-ENERGY        2e-ENERGY     NORM[dD(SAO)]  TOL
   6  -76.262426686046    -125.26176310     38.471079826    0.147D-03 0.558D-09
                            Exc = -9.48691954170     Coul =  47.9579993677    
                              N = 10.000002573    
                            current damping = 0.350
 
          Norm of current diis error: 0.16314E-02
          max. resid. norm for Fia-block=  4.547D-04 for orbital      2a         
          max. resid. fock norm         =  2.910D-03 for orbital     24a         

 ENERGY CONVERGED !

          Overall gridpoints after grid construction =         28288

 ITERATION  ENERGY          1e-ENERGY        2e-ENERGY     NORM[dD(SAO)]  TOL
   7  -76.262415208570    -125.26165178     38.470979986    0.317D-04 0.534D-09
                            Exc = -9.48689988409     Coul =  47.9578798699    
                              N = 9.9999999227    
                            current damping = 0.400
 
          Norm of current diis error: 0.47366E-03
          max. resid. norm for Fia-block=  1.265D-04 for orbital      3a         
          max. resid. fock norm         =  7.450D-04 for orbital     24a         

 End of SCF iterations

   convergence criteria satisfied after    7 iterations


                  ------------------------------------------ 
                 |  total energy      =    -76.26241520857  |
                  ------------------------------------------ 
                 :  kinetic energy    =     76.41685197219  :
                 :  potential energy  =   -152.67926718076  :
                 :  virial theorem    =      2.00202507045  :
                 :  wavefunction norm =      1.00000000000  :
                  .......................................... 


 <geterg> : there is no data group $energy 


 <skperg> : $end is missing 


 orbitals $scfmo  will be written to file mos

    irrep                  1a          2a          3a          4a          5a   
 eigenvalues H        -18.74071    -0.96291    -0.49611    -0.32110    -0.24477
            eV        -509.9648    -26.2022    -13.4999     -8.7377     -6.6605
 occupation              2.0000      2.0000      2.0000      2.0000      2.0000 

    irrep                  6a          7a          8a          9a         10a   
 eigenvalues H          0.04435     0.14386     0.52202     0.79263     0.85099
            eV           1.2068      3.9147     14.2049     21.5687     23.1567
 
 
 
 
 ==============================================================================
                           electrostatic moments
 ==============================================================================

 reference point for electrostatic moments:    0.00000   0.00000   0.00000

 
              nuc           elec       ->  total
 ------------------------------------------------------------------------------
                          charge      
 ------------------------------------------------------------------------------
          10.000000     -10.000000       0.000000
 
 ------------------------------------------------------------------------------
                       dipole moment  
 ------------------------------------------------------------------------------
   x     -56.746872      56.507204      -0.239668
   y      -4.084557       3.678571      -0.405986
   z      -1.175290       0.575826      -0.599463
 
   | dipole moment | =     0.7626 a.u. =     1.9384 debye 
 
 ------------------------------------------------------------------------------
                     quadrupole moment
 ------------------------------------------------------------------------------
  xx     322.828332    -324.682531      -1.854199
  yy       2.748903      -6.851620      -4.102716
  zz       3.135819      -6.712616      -3.576797
  xy      24.084222     -21.182005       2.902217
  xz       5.927970      -2.910737       3.017233
  yz       0.036526      -0.051983      -0.015457
 
     1/3  trace=      -3.177904
     anisotropy=       7.531950
 
 ==============================================================================
 


    ------------------------------------------------------------------------
         total  cpu-time :   0.20 seconds
         total wall-time :   0.20 seconds
    ------------------------------------------------------------------------

   ****  ridft : all done  ****


    2020-12-01 10:44:59.172 

--- PyADF *** new job *** PyADF ---
 operating system is UNIX !
 hostname is nitrogen02

 ridft (nitrogen02) : TURBOMOLE V7.1 ( 20661 ) 10 Jun 2016 at 08:56:48
 Copyright (C) 2016 TURBOMOLE GmbH, Karlsruhe


    2020-12-01 10:44:59.344 



                                  r i d f t

                        DFT program with RI approximation 
                                for coulomb part 




                                                 
                                 References:     
                                                 
          TURBOMOLE:                             
              R. Ahlrichs, M. Baer, M. Haeser, H. Horn, and
              C. Koelmel
              Electronic structure calculations on workstation
              computers: the program system TURBOMOLE
              Chem. Phys. Lett. 162: 165 (1989)
          Density Functional:                              
              O. Treutler and R. Ahlrichs                      
              Efficient Molecular Numerical Integration Schemes
              J. Chem. Phys. 102: 346 (1995)                   
          Parallel Version:                                
              Performance of parallel TURBOMOLE for Density    
              Functional Calculations                          
              M. v. Arnim and R. Ahlrichs                      
              J. Comp. Chem. 19: 1746 (1998)                   
          RI-J Method:                                     
              Auxiliary Basis Sets to approximate Coulomb      
              Potentials                                       
              Chem. Phys. Lett. 240: 283 (1995)                
              K. Eichkorn, O. Treutler, H. Oehm, M. Haeser     
              and R. Ahlrichs                                  
              Chem. Phys. Lett. 242: 652 (1995)                
                                                           
              Auxiliary Basis Sets for Main Row Atoms and their
              Use to approximate Coulomb Potentials            
              K. Eichkorn, F. Weigend, O. Treutler and         
              R. Ahlrichs                                      
              Theo. Chem. Acc. 97: 119 (1997)                   
                                                           
              Accurate Coulomb-fitting basis sets for H to Rn 
              F. Weigend                                        
              Phys. Chem. Chem. Phys. 8: 1057 (2006)            
                                                           
          Multipole accelerated RI-J (MARI-J):             
              Fast evaluation of the Coulomb potential for     
              electron densities using multipole accelerated   
              resolution of identity approximation             
              M. Sierka, A. Hogekamp and R. Ahlrichs           
              J. Chem. Phys. 118: 9136 (2003)                  
          RI-JK Method:                                     
              A fully direct RI-HF algorithm: Implementation,
              optimised auxiliary basis sets, demonstration of
              accuracy and efficiency                         
              F. Weigend                                      
              Phys. Chem. Chem. Phys. 4: 4285 (2002)           
          Two-component HF and DFT with spin-orbit coupling:  
              Self-consistent treatment of spin-orbit         
              interactions with efficient Hartree-Fock and    
              density functional methods                      
              M. K. Armbruster, F. Weigend, C. van Wüllen and 
              W. Klopper                                      
              Phys. Chem. Chem. Phys. 10: 1748 (2008)         
          Relativistic all-electron 2c calculations           
              An efficient implementation of two-component    
              relativistic exact-decoupling methods for large 
              molecules                                       
              D. Peng, N. Middendorf, F. Weigend, M. Reiher   
              J. Chem. Phys. 138, 184105 (2013)               
                                         


 


              +--------------------------------------------------+
              |      general information about current run       |
              +--------------------------------------------------+

 
 B-P86 functional
 exchange:    LDA + Becke (B88)
 correlation: LDA (VWN) + Perdew (P86)
 A DFT calculation using the RI-J approximation will be carried out.
 Allocatable memory for RI due to $ricore (MB):        2000


              +--------------------------------------------------+
              | Atomic coordinate, charge and isotop information |
              +--------------------------------------------------+

                    atomic coordinates            atom    charge  isotop
         -5.56926135   -0.23335524    0.12539833    o      8.000     0
         -5.88980834   -0.98234766   -1.90691121    h      1.000     0
         -6.71116165   -1.84702717   -0.81602564    h      1.000     0
 
       center of nuclear mass  :   -5.65108622   -0.36554785   -0.04098400
       center of nuclear charge:   -5.71550608   -0.46962168   -0.17197502

              +--------------------------------------------------+
              |               basis set information              |
              +--------------------------------------------------+

              we will work with the 1s 3p 5d 7f 9g ... basis set
              ...i.e. with spherical basis functions...

   type   atoms  prim   cont   basis
   ---------------------------------------------------------------------------
    o        1     24     14   def2-SVP   [3s2p1d|7s4p1d]
    h        2      7      5   def2-SVP   [2s1p|4s1p]
   ---------------------------------------------------------------------------
   total:    3     38     24
   ---------------------------------------------------------------------------

   total number of primitive shells          :   17
   total number of contracted shells         :   12
   total number of cartesian basis functions :   25
   total number of SCF-basis functions       :   24


 integral neglect threshold       :  0.13E-08
 integral storage threshold THIZE :  0.10E-04
 integral storage threshold THIME :         5

 RI-J AUXILIARY BASIS SET information:

              we will work with the 1s 3p 5d 7f 9g ... basis set
              ...i.e. with spherical basis functions...

   type   atoms  prim   cont   basis
   ---------------------------------------------------------------------------
    o        1     70     49   def2-SVP   [6s4p3d1f1g|12s5p4d2f1g]
    h        2     16     11   def2-SVP   [3s1p1d|5s2p1d]
   ---------------------------------------------------------------------------
   total:    3    102     71
   ---------------------------------------------------------------------------

   total number of primitive shells          :   32
   total number of contracted shells         :   25
   total number of cartesian basis functions :   85
   total number of SCF-basis functions       :   71


 symmetry group of the molecule :   c1 

 the group has the following generators :
   c1(z)

    1 symmetry operations found

 there are 1 real representations :   a   

 maximum number of shells which are related by symmetry :  1


    mo occupation :
   irrep   mo's   occupied
    a       24        5
 
 number of basis functions   :           24
 number of occupied orbitals :            5
 
  
           ------------------
           density functional
           ------------------
 B-P86 functional
 exchange:    LDA + Becke (B88)
 correlation: LDA (VWN) + Perdew (P86)
 iterations will be done with small grid
  
 spherical integration : Lebedev's spherical grid
 spherical gridsize    :           4
    i.e. gridpoints    :         434
 value for diffuse not defined
 radial integration    : Chebyshev 2nd kind (scaling 3)
 radial gridsize       :           6
 integration cells     :           3
 partition function    : becke
 partition sharpness   :           3
  

 biggest AO integral is expected to be     4.776656448
  
           ------------------------
               RI-J - INFORMATION
           ------------------------
 Contributions to RI integral batches: 
  neglected integral batches:           0
  direct contribution:                  0
  memory contribution:          78
 Memory core needed for (P|Q) and Cholesky      1 MByte
 Memory core minimum needed except of (P|Q)     1 MByte
 Total minimum memory core needed (sum)         1 MByte
  
 ****************************************
 Memory allocated for RI-J     1 MByte
 ****************************************
                                            

          ------------------------
          nuclear repulsion energy  :   7.92617871005    
          ------------------------

 
          -----------------
          -S,T+V- integrals
          -----------------

 1e-integrals will be neglected if expon. factor < 0.133678E-09
 
   Difference densities algorithm switched on.
   The maximal number of linear combinations of
   difference densities is          20 .

 DIIS switched on: error vector is FDS-SDF
 Max. Iterations for DIIS is     :   4
 DIIS matrix (see manual) 
    Scaling factor of diagonals  :  1.200
    threshold for scaling factor :  0.000

 scf convergence criterion : increment of total energy < .1000000D-05
                  and increment of one-electron energy < .1000000D-02


 <geterg> : there is no data group $energy 

  MOs are in ASCII format !


 automatic virtual orbital shift switched on 
      shift if e(lumo)-e(homo) < 0.10000000    


 reading orbital data $scfmo  from file mos
 orbital characterization : scfconv=6

 DSCF restart information will be dumped onto file mos


 Starting SCF iterations

          Overall gridpoints after grid construction =          7374

 ITERATION  ENERGY          1e-ENERGY        2e-ENERGY     NORM[dD(SAO)]  TOL
   1  -76.053218747492    -121.19122497     37.211827513    0.000D+00 0.133D-08
                            Exc = -9.36023310103     Coul =  46.5720606141    
                              N = 9.9999490865    
                            current damping = 0.700
 
          max. resid. norm for Fia-block=  2.189D-01 for orbital      3a         
          max. resid. fock norm         =  6.414D-01 for orbital     14a         

 ITERATION  ENERGY          1e-ENERGY        2e-ENERGY     NORM[dD(SAO)]  TOL
   2  -76.198836600838    -119.76271039     35.637695077    0.681D+00 0.887D-09
                            Exc = -9.15112005402     Coul =  44.7888151307    
                              N = 9.9999534971    
                            current damping = 0.650
 
          Norm of current diis error: 0.47209    
          max. resid. norm for Fia-block=  1.070D-01 for orbital      4a         
          max. resid. fock norm         =  3.037D-01 for orbital     18a         

 ITERATION  ENERGY          1e-ENERGY        2e-ENERGY     NORM[dD(SAO)]  TOL
   3  -76.236996525181    -120.73893433     36.575759096    0.301D+00 0.721D-09
                            Exc = -9.27122946959     Coul =  45.8469885652    
                              N = 9.9999517542    
                            current damping = 0.600
 
          Norm of current diis error: 0.21065    
          max. resid. norm for Fia-block=  4.833D-02 for orbital      3a         
          max. resid. fock norm         =  1.186D-01 for orbital     21a         

 ITERATION  ENERGY          1e-ENERGY        2e-ENERGY     NORM[dD(SAO)]  TOL
   4  -76.246325113847    -120.34269415     36.170190321    0.914D-01 0.635D-09
                            Exc = -9.22416326116     Coul =  45.3943535823    
                              N = 9.9999523923    
                            current damping = 0.650
 
          Norm of current diis error: 0.68389E-01
          max. resid. norm for Fia-block=  1.826D-02 for orbital      4a         
          max. resid. fock norm         =  4.098D-02 for orbital      8a         

 ITERATION  ENERGY          1e-ENERGY        2e-ENERGY     NORM[dD(SAO)]  TOL
   5  -76.247336242678    -120.37772742     36.204212468    0.158D-01 0.587D-09
                            Exc = -9.22812408182     Coul =  45.4323365493    
                              N = 9.9999524073    
                            current damping = 0.700
 
          Norm of current diis error: 0.23980E-01
          max. resid. norm for Fia-block=  6.523D-03 for orbital      3a         
          max. resid. fock norm         =  1.659D-02 for orbital      8a         
          mo-orthogonalization: Cholesky decomposition

 ITERATION  ENERGY          1e-ENERGY        2e-ENERGY     NORM[dD(SAO)]  TOL
   6  -76.247492734994    -120.37319778     36.199526333    0.140D-02 0.554D-09
                            Exc = -9.22786746785     Coul =  45.4273938008    
                              N = 9.9999524041    
                            current damping = 0.750
 
          Norm of current diis error: 0.10456E-01
          max. resid. norm for Fia-block=  2.672D-03 for orbital      4a         
          max. resid. fock norm         =  6.899D-03 for orbital      8a         

 ITERATION  ENERGY          1e-ENERGY        2e-ENERGY     NORM[dD(SAO)]  TOL
   7  -76.247519458254    -120.37842635     36.204728186    0.352D-03 0.528D-09
                            Exc = -9.22861451242     Coul =  45.4333426985    
                              N = 9.9999523926    
                            current damping = 0.800
 
          Norm of current diis error: 0.42869E-02
          max. resid. norm for Fia-block=  1.197D-03 for orbital      4a         
          max. resid. fock norm         =  2.853D-03 for orbital      8a         

 ITERATION  ENERGY          1e-ENERGY        2e-ENERGY     NORM[dD(SAO)]  TOL
   8  -76.247524063832    -120.37489398     36.201191211    0.198D-03 0.514D-09
                            Exc = -9.22819802404     Coul =  45.4293892349    
                              N = 9.9999523996    
                            current damping = 0.850
 
          Norm of current diis error: 0.23878E-02
          max. resid. norm for Fia-block=  5.778D-04 for orbital      4a         
          max. resid. fock norm         =  1.347D-03 for orbital      8a         

 ITERATION  ENERGY          1e-ENERGY        2e-ENERGY     NORM[dD(SAO)]  TOL
   9  -76.247525080118    -120.37866515     36.204961355    0.524D-04 0.503D-09
                            Exc = -9.22867354941     Coul =  45.4336349046    
                              N = 9.9999523937    
                            current damping = 0.900
 
          Norm of current diis error: 0.10078E-02
          max. resid. norm for Fia-block=  2.727D-04 for orbital      3a         
          max. resid. fock norm         =  5.867D-04 for orbital      8a         

 ENERGY CONVERGED !

          Overall gridpoints after grid construction =         28356

 ITERATION  ENERGY          1e-ENERGY        2e-ENERGY     NORM[dD(SAO)]  TOL
  10  -76.247543976917    -120.37703286     36.203310177    0.788D-05 0.494D-09
                            Exc = -9.22850241414     Coul =  45.4318125913    
                              N = 10.000000082    
                            current damping = 0.950
 
          Norm of current diis error: 0.45311E-03
          max. resid. norm for Fia-block=  1.145D-04 for orbital      4a         
          max. resid. fock norm         =  2.861D-04 for orbital      8a         

 End of SCF iterations

   convergence criteria satisfied after   10 iterations


                  ------------------------------------------ 
                 |  total energy      =    -76.24754397692  |
                  ------------------------------------------ 
                 :  kinetic energy    =     75.63805254689  :
                 :  potential energy  =   -151.88559652380  :
                 :  virial theorem    =      1.99200641230  :
                 :  wavefunction norm =      1.00000000000  :
                  .......................................... 


 <geterg> : there is no data group $energy 


 <skperg> : $end is missing 


 orbitals $scfmo  will be written to file mos

    irrep                  1a          2a          3a          4a          5a   
 eigenvalues H        -18.80498    -0.88299    -0.45281    -0.29849    -0.23931
            eV        -511.7136    -24.0275    -12.3216     -8.1223     -6.5120
 occupation              2.0000      2.0000      2.0000      2.0000      2.0000 

    irrep                  6a          7a          8a          9a         10a   
 eigenvalues H         -0.08364     0.06715     0.31260     0.51165     0.81622
            eV          -2.2759      1.8273      8.5063     13.9228     22.2106
 
 
 
 
 ==============================================================================
                           electrostatic moments
 ==============================================================================

 reference point for electrostatic moments:    0.00000   0.00000   0.00000

 
              nuc           elec       ->  total
 ------------------------------------------------------------------------------
                          charge      
 ------------------------------------------------------------------------------
          10.000000     -10.000000      -0.000000
 
 ------------------------------------------------------------------------------
                       dipole moment  
 ------------------------------------------------------------------------------
   x     -57.155061      56.807347      -0.347714
   y      -4.696217       4.134470      -0.561747
   z      -1.719750       1.012775      -0.706975
 
   | dipole moment | =     0.9676 a.u. =     2.4594 debye 
 
 ------------------------------------------------------------------------------
                     quadrupole moment
 ------------------------------------------------------------------------------
  xx     327.862908    -328.945514      -1.082605
  yy       4.812154      -8.868318      -4.056164
  zz       4.428006      -8.268262      -3.840256
  xy      28.578468     -24.640790       3.937678
  xz      11.120813      -6.559651       4.561162
  yz       3.146372      -1.903442       1.242930
 
     1/3  trace=      -2.993009
     anisotropy=      11.036748
 
 ==============================================================================
 


    ------------------------------------------------------------------------
         total  cpu-time :   0.25 seconds
         total wall-time :   0.25 seconds
    ------------------------------------------------------------------------

   ****  ridft : all done  ****


    2020-12-01 10:44:59.597 

--- PyADF *** new job *** PyADF ---
 operating system is UNIX !
 hostname is nitrogen02

 ridft (nitrogen02) : TURBOMOLE V7.1 ( 20661 ) 10 Jun 2016 at 08:56:48
 Copyright (C) 2016 TURBOMOLE GmbH, Karlsruhe


    2020-12-01 10:44:59.770 



                                  r i d f t

                        DFT program with RI approximation 
                                for coulomb part 




                                                 
                                 References:     
                                                 
          TURBOMOLE:                             
              R. Ahlrichs, M. Baer, M. Haeser, H. Horn, and
              C. Koelmel
              Electronic structure calculations on workstation
              computers: the program system TURBOMOLE
              Chem. Phys. Lett. 162: 165 (1989)
          Density Functional:                              
              O. Treutler and R. Ahlrichs                      
              Efficient Molecular Numerical Integration Schemes
              J. Chem. Phys. 102: 346 (1995)                   
          Parallel Version:                                
              Performance of parallel TURBOMOLE for Density    
              Functional Calculations                          
              M. v. Arnim and R. Ahlrichs                      
              J. Comp. Chem. 19: 1746 (1998)                   
          RI-J Method:                                     
              Auxiliary Basis Sets to approximate Coulomb      
              Potentials                                       
              Chem. Phys. Lett. 240: 283 (1995)                
              K. Eichkorn, O. Treutler, H. Oehm, M. Haeser     
              and R. Ahlrichs                                  
              Chem. Phys. Lett. 242: 652 (1995)                
                                                           
              Auxiliary Basis Sets for Main Row Atoms and their
              Use to approximate Coulomb Potentials            
              K. Eichkorn, F. Weigend, O. Treutler and         
              R. Ahlrichs                                      
              Theo. Chem. Acc. 97: 119 (1997)                   
                                                           
              Accurate Coulomb-fitting basis sets for H to Rn 
              F. Weigend                                        
              Phys. Chem. Chem. Phys. 8: 1057 (2006)            
                                                           
          Multipole accelerated RI-J (MARI-J):             
              Fast evaluation of the Coulomb potential for     
              electron densities using multipole accelerated   
              resolution of identity approximation             
              M. Sierka, A. Hogekamp and R. Ahlrichs           
              J. Chem. Phys. 118: 9136 (2003)                  
          RI-JK Method:                                     
              A fully direct RI-HF algorithm: Implementation,
              optimised auxiliary basis sets, demonstration of
              accuracy and efficiency                         
              F. Weigend                                      
              Phys. Chem. Chem. Phys. 4: 4285 (2002)           
          Two-component HF and DFT with spin-orbit coupling:  
              Self-consistent treatment of spin-orbit         
              interactions with efficient Hartree-Fock and    
              density functional methods                      
              M. K. Armbruster, F. Weigend, C. van Wüllen and 
              W. Klopper                                      
              Phys. Chem. Chem. Phys. 10: 1748 (2008)         
          Relativistic all-electron 2c calculations           
              An efficient implementation of two-component    
              relativistic exact-decoupling methods for large 
              molecules                                       
              D. Peng, N. Middendorf, F. Weigend, M. Reiher   
              J. Chem. Phys. 138, 184105 (2013)               
                                         


 


              +--------------------------------------------------+
              |      general information about current run       |
              +--------------------------------------------------+

 
 B-P86 functional
 exchange:    LDA + Becke (B88)
 correlation: LDA (VWN) + Perdew (P86)
 A DFT calculation using the RI-J approximation will be carried out.
 Allocatable memory for RI due to $ricore (MB):        2000


              +--------------------------------------------------+
              | Atomic coordinate, charge and isotop information |
              +--------------------------------------------------+

                    atomic coordinates            atom    charge  isotop
         -5.62571843   -0.32456248    0.01060032    o      8.000     0
         -4.93322239    0.27683685   -1.67144318    h      1.000     0
         -6.77176111   -1.65870436    0.77040195    h      1.000     0
 
       center of nuclear mass  :   -5.65109466   -0.36555990   -0.04099971
       center of nuclear charge:   -5.67107309   -0.39783673   -0.08162387

              +--------------------------------------------------+
              |               basis set information              |
              +--------------------------------------------------+

              we will work with the 1s 3p 5d 7f 9g ... basis set
              ...i.e. with spherical basis functions...

   type   atoms  prim   cont   basis
   ---------------------------------------------------------------------------
    o        1     24     14   def2-SVP   [3s2p1d|7s4p1d]
    h        2      7      5   def2-SVP   [2s1p|4s1p]
   ---------------------------------------------------------------------------
   total:    3     38     24
   ---------------------------------------------------------------------------

   total number of primitive shells          :   17
   total number of contracted shells         :   12
   total number of cartesian basis functions :   25
   total number of SCF-basis functions       :   24


 integral neglect threshold       :  0.13E-08
 integral storage threshold THIZE :  0.10E-04
 integral storage threshold THIME :         5

 RI-J AUXILIARY BASIS SET information:

              we will work with the 1s 3p 5d 7f 9g ... basis set
              ...i.e. with spherical basis functions...

   type   atoms  prim   cont   basis
   ---------------------------------------------------------------------------
    o        1     70     49   def2-SVP   [6s4p3d1f1g|12s5p4d2f1g]
    h        2     16     11   def2-SVP   [3s1p1d|5s2p1d]
   ---------------------------------------------------------------------------
   total:    3    102     71
   ---------------------------------------------------------------------------

   total number of primitive shells          :   32
   total number of contracted shells         :   25
   total number of cartesian basis functions :   85
   total number of SCF-basis functions       :   71


 symmetry group of the molecule :   c1 

 the group has the following generators :
   c1(z)

    1 symmetry operations found

 there are 1 real representations :   a   

 maximum number of shells which are related by symmetry :  1


    mo occupation :
   irrep   mo's   occupied
    a       24        5
 
 number of basis functions   :           24
 number of occupied orbitals :            5
 
  
           ------------------
           density functional
           ------------------
 B-P86 functional
 exchange:    LDA + Becke (B88)
 correlation: LDA (VWN) + Perdew (P86)
 iterations will be done with small grid
  
 spherical integration : Lebedev's spherical grid
 spherical gridsize    :           4
    i.e. gridpoints    :         434
 value for diffuse not defined
 radial integration    : Chebyshev 2nd kind (scaling 3)
 radial gridsize       :           6
 integration cells     :           3
 partition function    : becke
 partition sharpness   :           3
  

 biggest AO integral is expected to be     4.776656448
  
           ------------------------
               RI-J - INFORMATION
           ------------------------
 Contributions to RI integral batches: 
  neglected integral batches:           0
  direct contribution:                  0
  memory contribution:          78
 Memory core needed for (P|Q) and Cholesky      1 MByte
 Memory core minimum needed except of (P|Q)     1 MByte
 Total minimum memory core needed (sum)         1 MByte
  
 ****************************************
 Memory allocated for RI-J     1 MByte
 ****************************************
                                            

          ------------------------
          nuclear repulsion energy  :   8.62768224775    
          ------------------------

 
          -----------------
          -S,T+V- integrals
          -----------------

 1e-integrals will be neglected if expon. factor < 0.133678E-09
 
   Difference densities algorithm switched on.
   The maximal number of linear combinations of
   difference densities is          20 .

 DIIS switched on: error vector is FDS-SDF
 Max. Iterations for DIIS is     :   4
 DIIS matrix (see manual) 
    Scaling factor of diagonals  :  1.200
    threshold for scaling factor :  0.000

 scf convergence criterion : increment of total energy < .1000000D-05
                  and increment of one-electron energy < .1000000D-02


 <geterg> : there is no data group $energy 

  MOs are in ASCII format !


 automatic virtual orbital shift switched on 
      shift if e(lumo)-e(homo) < 0.10000000    


 reading orbital data $scfmo  from file mos
 orbital characterization : scfconv=6

 DSCF restart information will be dumped onto file mos


 Starting SCF iterations

          Overall gridpoints after grid construction =          7368

 ITERATION  ENERGY          1e-ENERGY        2e-ENERGY     NORM[dD(SAO)]  TOL
   1  -76.104399751145    -121.13439473     36.402312727    0.000D+00 0.133D-08
                            Exc = -9.25220050669     Coul =  45.6545132335    
                              N = 9.9999937999    
                            current damping = 0.700
 
          max. resid. norm for Fia-block=  2.360D-01 for orbital      3a         
          max. resid. fock norm         =  5.802D-01 for orbital     18a         

 ITERATION  ENERGY          1e-ENERGY        2e-ENERGY     NORM[dD(SAO)]  TOL
   2  -76.284540495643    -122.94938839     38.037165643    0.862D+00 0.931D-09
                            Exc = -9.42657790205     Coul =  47.4637435447    
                              N = 9.9999931353    
                            current damping = 0.650
 
          Norm of current diis error: 0.47420    
          max. resid. norm for Fia-block=  1.158D-01 for orbital      4a         
          max. resid. fock norm         =  2.889D-01 for orbital     17a         

 ITERATION  ENERGY          1e-ENERGY        2e-ENERGY     NORM[dD(SAO)]  TOL
   3  -76.325924218301    -121.92872603     36.975119567    0.247D+00 0.737D-09
                            Exc = -9.27624051953     Coul =  46.2513600861    
                              N = 9.9999915067    
                            current damping = 0.600
 
          Norm of current diis error: 0.15451    
          max. resid. norm for Fia-block=  3.390D-02 for orbital      4a         
          max. resid. fock norm         =  1.129D-01 for orbital     16a         

 ITERATION  ENERGY          1e-ENERGY        2e-ENERGY     NORM[dD(SAO)]  TOL
   4  -76.331478446070    -122.19098358     37.231822884    0.694D-01 0.654D-09
                            Exc = -9.30911466540     Coul =  46.5409375496    
                              N = 9.9999916361    
                            current damping = 0.650
 
          Norm of current diis error: 0.47187E-01
          max. resid. norm for Fia-block=  1.285D-02 for orbital      4a         
          max. resid. fock norm         =  4.055D-02 for orbital     13a         

 ITERATION  ENERGY          1e-ENERGY        2e-ENERGY     NORM[dD(SAO)]  TOL
   5  -76.332052004916    -122.19277791     37.233043655    0.326D-02 0.597D-09
                            Exc = -9.30860298460     Coul =  46.5416466394    
                              N = 9.9999915242    
                            current damping = 0.500
 
          Norm of current diis error: 0.18603E-01
          max. resid. norm for Fia-block=  5.110D-03 for orbital      4a         
          max. resid. fock norm         =  1.584D-02 for orbital     12a         
          mo-orthogonalization: Cholesky decomposition

 ITERATION  ENERGY          1e-ENERGY        2e-ENERGY     NORM[dD(SAO)]  TOL
   6  -76.332149533291    -122.20121835     37.241386572    0.843D-03 0.552D-09
                            Exc = -9.30940372301     Coul =  46.5507902954    
                              N = 9.9999915017    
                            current damping = 0.350
 
          Norm of current diis error: 0.62236E-02
          max. resid. norm for Fia-block=  1.694D-03 for orbital      4a         
          max. resid. fock norm         =  5.257D-03 for orbital     12a         

 ITERATION  ENERGY          1e-ENERGY        2e-ENERGY     NORM[dD(SAO)]  TOL
   7  -76.332160483429    -122.20199891     37.242156178    0.818D-04 0.528D-09
                            Exc = -9.30940645571     Coul =  46.5515626342    
                              N = 9.9999914864    
                            current damping = 0.200
 
          Norm of current diis error: 0.17710E-02
          max. resid. norm for Fia-block=  4.334D-04 for orbital      4a         
          max. resid. fock norm         =  1.327D-03 for orbital     15a         

 ITERATION  ENERGY          1e-ENERGY        2e-ENERGY     NORM[dD(SAO)]  TOL
   8  -76.332161243035    -122.20649762     37.246654127    0.645D-04 0.511D-09
                            Exc = -9.30998050044     Coul =  46.5566346274    
                              N = 9.9999914890    
                            current damping = 0.050
 
          Norm of current diis error: 0.96732E-03
          max. resid. norm for Fia-block=  1.367D-04 for orbital      4a         
          max. resid. fock norm         =  2.682D-04 for orbital     12a         

 ENERGY CONVERGED !

          Overall gridpoints after grid construction =         28322

 ITERATION  ENERGY          1e-ENERGY        2e-ENERGY     NORM[dD(SAO)]  TOL
   9  -76.332149432461    -122.20326994     37.243438264    0.457D-05 0.507D-09
                            Exc = -9.30953057672     Coul =  46.5529688409    
                              N = 10.000000102    
                            current damping = 0.100
 
          Norm of current diis error: 0.43005E-03
          max. resid. norm for Fia-block=  3.053D-05 for orbital      3a         
          max. resid. fock norm         =  3.053D-05 for orbital      3a         

 End of SCF iterations

   convergence criteria satisfied after    9 iterations


                  ------------------------------------------ 
                 |  total energy      =    -76.33214943246  |
                  ------------------------------------------ 
                 :  kinetic energy    =     75.55909019549  :
                 :  potential energy  =   -151.89123962795  :
                 :  virial theorem    =      1.98987242934  :
                 :  wavefunction norm =      1.00000000000  :
                  .......................................... 


 <geterg> : there is no data group $energy 


 <skperg> : $end is missing 


 orbitals $scfmo  will be written to file mos

    irrep                  1a          2a          3a          4a          5a   
 eigenvalues H        -18.74047    -0.84547    -0.48580    -0.23807    -0.21491
            eV        -509.9583    -23.0066    -13.2195     -6.4783     -5.8481
 occupation              2.0000      2.0000      2.0000      2.0000      2.0000 

    irrep                  6a          7a          8a          9a         10a   
 eigenvalues H          0.00731     0.10442     0.41537     0.60801     0.86504
            eV           0.1990      2.8415     11.3028     16.5450     23.5390
 
 
 
 
 ==============================================================================
                           electrostatic moments
 ==============================================================================

 reference point for electrostatic moments:    0.00000   0.00000   0.00000

 
              nuc           elec       ->  total
 ------------------------------------------------------------------------------
                          charge      
 ------------------------------------------------------------------------------
          10.000000     -10.000000       0.000000
 
 ------------------------------------------------------------------------------
                       dipole moment  
 ------------------------------------------------------------------------------
   x     -56.710731      56.528479      -0.182252
   y      -3.978367       3.683929      -0.294438
   z      -0.816239       0.445637      -0.370602
 
   | dipole moment | =     0.5072 a.u. =     1.2892 debye 
 
 ------------------------------------------------------------------------------
                     quadrupole moment
 ------------------------------------------------------------------------------
  xx     323.383095    -325.728134      -2.345039
  yy       3.670665      -7.703924      -4.033259
  zz       3.388140      -6.983392      -3.595251
  xy      24.473829     -21.775942       2.697887
  xz       2.551548      -1.509933       1.041615
  yz      -1.768110       0.844615      -0.923495
 
     1/3  trace=      -3.324516
     anisotropy=       5.472813
 
 ==============================================================================
 


    ------------------------------------------------------------------------
         total  cpu-time :   0.24 seconds
         total wall-time :   0.24 seconds
    ------------------------------------------------------------------------

   ****  ridft : all done  ****


    2020-12-01 10:45:00.007 

--- PyADF *** new job *** PyADF ---
 operating system is UNIX !
 hostname is nitrogen02

 ridft (nitrogen02) : TURBOMOLE V7.1 ( 20661 ) 10 Jun 2016 at 08:56:48
 Copyright (C) 2016 TURBOMOLE GmbH, Karlsruhe


    2020-12-01 10:45:00.183 



                                  r i d f t

                        DFT program with RI approximation 
                                for coulomb part 




                                                 
                                 References:     
                                                 
          TURBOMOLE:                             
              R. Ahlrichs, M. Baer, M. Haeser, H. Horn, and
              C. Koelmel
              Electronic structure calculations on workstation
              computers: the program system TURBOMOLE
              Chem. Phys. Lett. 162: 165 (1989)
          Density Functional:                              
              O. Treutler and R. Ahlrichs                      
              Efficient Molecular Numerical Integration Schemes
              J. Chem. Phys. 102: 346 (1995)                   
          Parallel Version:                                
              Performance of parallel TURBOMOLE for Density    
              Functional Calculations                          
              M. v. Arnim and R. Ahlrichs                      
              J. Comp. Chem. 19: 1746 (1998)                   
          RI-J Method:                                     
              Auxiliary Basis Sets to approximate Coulomb      
              Potentials                                       
              Chem. Phys. Lett. 240: 283 (1995)                
              K. Eichkorn, O. Treutler, H. Oehm, M. Haeser     
              and R. Ahlrichs                                  
              Chem. Phys. Lett. 242: 652 (1995)                
                                                           
              Auxiliary Basis Sets for Main Row Atoms and their
              Use to approximate Coulomb Potentials            
              K. Eichkorn, F. Weigend, O. Treutler and         
              R. Ahlrichs                                      
              Theo. Chem. Acc. 97: 119 (1997)                   
                                                           
              Accurate Coulomb-fitting basis sets for H to Rn 
              F. Weigend                                        
              Phys. Chem. Chem. Phys. 8: 1057 (2006)            
                                                           
          Multipole accelerated RI-J (MARI-J):             
              Fast evaluation of the Coulomb potential for     
              electron densities using multipole accelerated   
              resolution of identity approximation             
              M. Sierka, A. Hogekamp and R. Ahlrichs           
              J. Chem. Phys. 118: 9136 (2003)                  
          RI-JK Method:                                     
              A fully direct RI-HF algorithm: Implementation,
              optimised auxiliary basis sets, demonstration of
              accuracy and efficiency                         
              F. Weigend                                      
              Phys. Chem. Chem. Phys. 4: 4285 (2002)           
          Two-component HF and DFT with spin-orbit coupling:  
              Self-consistent treatment of spin-orbit         
              interactions with efficient Hartree-Fock and    
              density functional methods                      
              M. K. Armbruster, F. Weigend, C. van Wüllen and 
              W. Klopper                                      
              Phys. Chem. Chem. Phys. 10: 1748 (2008)         
          Relativistic all-electron 2c calculations           
              An efficient implementation of two-component    
              relativistic exact-decoupling methods for large 
              molecules                                       
              D. Peng, N. Middendorf, F. Weigend, M. Reiher   
              J. Chem. Phys. 138, 184105 (2013)               
                                         


 


              +--------------------------------------------------+
              |      general information about current run       |
              +--------------------------------------------------+

 
 B-P86 functional
 exchange:    LDA + Becke (B88)
 correlation: LDA (VWN) + Perdew (P86)
 A DFT calculation using the RI-J approximation will be carried out.
 Allocatable memory for RI due to $ricore (MB):        2000


              +--------------------------------------------------+
              | Atomic coordinate, charge and isotop information |
              +--------------------------------------------------+

                    atomic coordinates            atom    charge  isotop
         -5.61290655   -0.29171854    0.10919467    o      8.000     0
         -5.11526454   -0.12342304   -2.67572484    h      1.000     0
         -6.79305692   -1.77969450    0.20993916    h      1.000     0
 
       center of nuclear mass  :   -5.65109333   -0.36555552   -0.04098667
       center of nuclear charge:   -5.68115738   -0.42368658   -0.15922283

              +--------------------------------------------------+
              |               basis set information              |
              +--------------------------------------------------+

              we will work with the 1s 3p 5d 7f 9g ... basis set
              ...i.e. with spherical basis functions...

   type   atoms  prim   cont   basis
   ---------------------------------------------------------------------------
    o        1     24     14   def2-SVP   [3s2p1d|7s4p1d]
    h        2      7      5   def2-SVP   [2s1p|4s1p]
   ---------------------------------------------------------------------------
   total:    3     38     24
   ---------------------------------------------------------------------------

   total number of primitive shells          :   17
   total number of contracted shells         :   12
   total number of cartesian basis functions :   25
   total number of SCF-basis functions       :   24


 integral neglect threshold       :  0.13E-08
 integral storage threshold THIZE :  0.10E-04
 integral storage threshold THIME :         5

 RI-J AUXILIARY BASIS SET information:

              we will work with the 1s 3p 5d 7f 9g ... basis set
              ...i.e. with spherical basis functions...

   type   atoms  prim   cont   basis
   ---------------------------------------------------------------------------
    o        1     70     49   def2-SVP   [6s4p3d1f1g|12s5p4d2f1g]
    h        2     16     11   def2-SVP   [3s1p1d|5s2p1d]
   ---------------------------------------------------------------------------
   total:    3    102     71
   ---------------------------------------------------------------------------

   total number of primitive shells          :   32
   total number of contracted shells         :   25
   total number of cartesian basis functions :   85
   total number of SCF-basis functions       :   71


 symmetry group of the molecule :   c1 

 the group has the following generators :
   c1(z)

    1 symmetry operations found

 there are 1 real representations :   a   

 maximum number of shells which are related by symmetry :  1


    mo occupation :
[...]

    irrep                  6a          7a          8a          9a         10a   
 eigenvalues H         -0.16460     0.01260     0.36491     0.44760     0.82297
            eV          -4.4789      0.3429      9.9297     12.1800     22.3943
 
 
 
 
 ==============================================================================
                           electrostatic moments
 ==============================================================================

 reference point for electrostatic moments:    0.00000   0.00000   0.00000

 
              nuc           elec       ->  total
 ------------------------------------------------------------------------------
                          charge      
 ------------------------------------------------------------------------------
          10.000000     -10.000000      -0.000000
 
 ------------------------------------------------------------------------------
                       dipole moment  
 ------------------------------------------------------------------------------
   x     -57.434667      57.104311      -0.330356
   y      -5.045510       4.507578      -0.537933
   z      -1.676391       0.979552      -0.696839
 
   | dipole moment | =     0.9403 a.u. =     2.3899 debye 
 
 ------------------------------------------------------------------------------
                     quadrupole moment
 ------------------------------------------------------------------------------
  xx     332.643567    -333.889380      -1.245813
  yy       7.831920     -11.709305      -3.877384
  zz       4.287934      -8.418941      -4.131007
  xy      32.773210     -28.596675       4.176536
  xz      11.199682      -6.762599       4.437083
  yz       3.520376      -2.369147       1.151229
 
     1/3  trace=      -3.084735
     anisotropy=      11.091726
 
 ==============================================================================
 


    ------------------------------------------------------------------------
         total  cpu-time :   0.20 seconds
         total wall-time :   0.20 seconds
    ------------------------------------------------------------------------

   ****  ridft : all done  ****


    2020-12-01 10:45:24.846 

--- PyADF *** new job *** PyADF ---
 operating system is UNIX !
 hostname is nitrogen02

 ridft (nitrogen02) : TURBOMOLE V7.1 ( 20661 ) 10 Jun 2016 at 08:56:48
 Copyright (C) 2016 TURBOMOLE GmbH, Karlsruhe


    2020-12-01 10:45:25.030 



                                  r i d f t

                        DFT program with RI approximation 
                                for coulomb part 




                                                 
                                 References:     
                                                 
          TURBOMOLE:                             
              R. Ahlrichs, M. Baer, M. Haeser, H. Horn, and
              C. Koelmel
              Electronic structure calculations on workstation
              computers: the program system TURBOMOLE
              Chem. Phys. Lett. 162: 165 (1989)
          Density Functional:                              
              O. Treutler and R. Ahlrichs                      
              Efficient Molecular Numerical Integration Schemes
              J. Chem. Phys. 102: 346 (1995)                   
          Parallel Version:                                
              Performance of parallel TURBOMOLE for Density    
              Functional Calculations                          
              M. v. Arnim and R. Ahlrichs                      
              J. Comp. Chem. 19: 1746 (1998)                   
          RI-J Method:                                     
              Auxiliary Basis Sets to approximate Coulomb      
              Potentials                                       
              Chem. Phys. Lett. 240: 283 (1995)                
              K. Eichkorn, O. Treutler, H. Oehm, M. Haeser     
              and R. Ahlrichs                                  
              Chem. Phys. Lett. 242: 652 (1995)                
                                                           
              Auxiliary Basis Sets for Main Row Atoms and their
              Use to approximate Coulomb Potentials            
              K. Eichkorn, F. Weigend, O. Treutler and         
              R. Ahlrichs                                      
              Theo. Chem. Acc. 97: 119 (1997)                   
                                                           
              Accurate Coulomb-fitting basis sets for H to Rn 
              F. Weigend                                        
              Phys. Chem. Chem. Phys. 8: 1057 (2006)            
                                                           
          Multipole accelerated RI-J (MARI-J):             
              Fast evaluation of the Coulomb potential for     
              electron densities using multipole accelerated   
              resolution of identity approximation             
              M. Sierka, A. Hogekamp and R. Ahlrichs           
              J. Chem. Phys. 118: 9136 (2003)                  
          RI-JK Method:                                     
              A fully direct RI-HF algorithm: Implementation,
              optimised auxiliary basis sets, demonstration of
              accuracy and efficiency                         
              F. Weigend                                      
              Phys. Chem. Chem. Phys. 4: 4285 (2002)           
          Two-component HF and DFT with spin-orbit coupling:  
              Self-consistent treatment of spin-orbit         
              interactions with efficient Hartree-Fock and    
              density functional methods                      
              M. K. Armbruster, F. Weigend, C. van Wüllen and 
              W. Klopper                                      
              Phys. Chem. Chem. Phys. 10: 1748 (2008)         
          Relativistic all-electron 2c calculations           
              An efficient implementation of two-component    
              relativistic exact-decoupling methods for large 
              molecules                                       
              D. Peng, N. Middendorf, F. Weigend, M. Reiher   
              J. Chem. Phys. 138, 184105 (2013)               
                                         


 


              +--------------------------------------------------+
              |      general information about current run       |
              +--------------------------------------------------+

 
 B-P86 functional
 exchange:    LDA + Becke (B88)
 correlation: LDA (VWN) + Perdew (P86)
 A DFT calculation using the RI-J approximation will be carried out.
 Allocatable memory for RI due to $ricore (MB):        2000


              +--------------------------------------------------+
              | Atomic coordinate, charge and isotop information |
              +--------------------------------------------------+

                    atomic coordinates            atom    charge  isotop
         -5.59019159   -0.28018581    0.00509353    o      8.000     0
         -4.91518695    0.29942585   -1.67388074    h      1.000     0
         -7.35361735   -2.38560035    0.86025309    h      1.000     0
 
       center of nuclear mass  :   -5.65108946   -0.36555547   -0.04099944
       center of nuclear charge:   -5.69903370   -0.43276610   -0.07728794

              +--------------------------------------------------+
              |               basis set information              |
              +--------------------------------------------------+

              we will work with the 1s 3p 5d 7f 9g ... basis set
              ...i.e. with spherical basis functions...

   type   atoms  prim   cont   basis
   ---------------------------------------------------------------------------
    o        1     24     14   def2-SVP   [3s2p1d|7s4p1d]
    h        2      7      5   def2-SVP   [2s1p|4s1p]
   ---------------------------------------------------------------------------
   total:    3     38     24
   ---------------------------------------------------------------------------

   total number of primitive shells          :   17
   total number of contracted shells         :   12
   total number of cartesian basis functions :   25
   total number of SCF-basis functions       :   24


 integral neglect threshold       :  0.13E-08
 integral storage threshold THIZE :  0.10E-04
 integral storage threshold THIME :         5

 RI-J AUXILIARY BASIS SET information:

              we will work with the 1s 3p 5d 7f 9g ... basis set
              ...i.e. with spherical basis functions...

   type   atoms  prim   cont   basis
   ---------------------------------------------------------------------------
    o        1     70     49   def2-SVP   [6s4p3d1f1g|12s5p4d2f1g]
    h        2     16     11   def2-SVP   [3s1p1d|5s2p1d]
   ---------------------------------------------------------------------------
   total:    3    102     71
   ---------------------------------------------------------------------------

   total number of primitive shells          :   32
   total number of contracted shells         :   25
   total number of cartesian basis functions :   85
   total number of SCF-basis functions       :   71


 symmetry group of the molecule :   c1 

 the group has the following generators :
   c1(z)

    1 symmetry operations found

 there are 1 real representations :   a   

 maximum number of shells which are related by symmetry :  1


    mo occupation :
   irrep   mo's   occupied
    a       24        5
 
 number of basis functions   :           24
 number of occupied orbitals :            5
 
  
           ------------------
           density functional
           ------------------
 B-P86 functional
 exchange:    LDA + Becke (B88)
 correlation: LDA (VWN) + Perdew (P86)
 iterations will be done with small grid
  
 spherical integration : Lebedev's spherical grid
 spherical gridsize    :           4
    i.e. gridpoints    :         434
 value for diffuse not defined
 radial integration    : Chebyshev 2nd kind (scaling 3)
 radial gridsize       :           6
 integration cells     :           3
 partition function    : becke
 partition sharpness   :           3
  

 biggest AO integral is expected to be     4.776656448
  
           ------------------------
               RI-J - INFORMATION
           ------------------------
 Contributions to RI integral batches: 
  neglected integral batches:           0
  direct contribution:                  0
  memory contribution:          78
 Memory core needed for (P|Q) and Cholesky      1 MByte
 Memory core minimum needed except of (P|Q)     1 MByte
 Total minimum memory core needed (sum)         1 MByte
  
 ****************************************
 Memory allocated for RI-J     1 MByte
 ****************************************
                                            

          ------------------------
          nuclear repulsion energy  :   7.21746681189    
          ------------------------

 
          -----------------
          -S,T+V- integrals
          -----------------

 1e-integrals will be neglected if expon. factor < 0.133678E-09
 
   Difference densities algorithm switched on.
   The maximal number of linear combinations of
   difference densities is          20 .

 DIIS switched on: error vector is FDS-SDF
 Max. Iterations for DIIS is     :   4
 DIIS matrix (see manual) 
    Scaling factor of diagonals  :  1.200
    threshold for scaling factor :  0.000

 scf convergence criterion : increment of total energy < .1000000D-05
                  and increment of one-electron energy < .1000000D-02


 <geterg> : there is no data group $energy 

  MOs are in ASCII format !


 automatic virtual orbital shift switched on 
      shift if e(lumo)-e(homo) < 0.10000000    


 reading orbital data $scfmo  from file mos
 orbital characterization : scfconv=6

 DSCF restart information will be dumped onto file mos


 Starting SCF iterations

          Overall gridpoints after grid construction =          7373

 ITERATION  ENERGY          1e-ENERGY        2e-ENERGY     NORM[dD(SAO)]  TOL
   1  -76.137109727862    -118.60436404     35.249787504    0.000D+00 0.133D-08
                            Exc = -9.12770865682     Coul =  44.3774961608    
                              N = 10.000001837    
                            current damping = 0.700
 
          max. resid. norm for Fia-block=  1.579D-01 for orbital      4a         
          max. resid. fock norm         =  6.111D-01 for orbital     19a         

 ITERATION  ENERGY          1e-ENERGY        2e-ENERGY     NORM[dD(SAO)]  TOL
   2  -76.194742187337    -120.64075980     37.228550805    0.569D+00 0.870D-09
                            Exc = -9.33461501356     Coul =  46.5631658184    
                              N = 10.000001687    
                            current damping = 0.650
 
          Norm of current diis error: 0.51774    
          max. resid. norm for Fia-block=  9.234D-02 for orbital      4a         
          max. resid. fock norm         =  3.117D-01 for orbital     23a         

 ITERATION  ENERGY          1e-ENERGY        2e-ENERGY     NORM[dD(SAO)]  TOL
   3  -76.237280876593    -119.10910544     35.654357751    0.274D+00 0.771D-09
                            Exc = -9.14550353098     Coul =  44.7998612819    
                              N = 10.000000028    
                            current damping = 0.600
 
          Norm of current diis error: 0.12356    
          max. resid. norm for Fia-block=  2.591D-02 for orbital      4a         
          max. resid. fock norm         =  9.301D-02 for orbital     23a         

 ITERATION  ENERGY          1e-ENERGY        2e-ENERGY     NORM[dD(SAO)]  TOL
   4  -76.240428205517    -119.37614828     35.918253258    0.592D-01 0.675D-09
                            Exc = -9.17809854397     Coul =  45.0963518017    
                              N = 10.000000386    
                            current damping = 0.650
 
          Norm of current diis error: 0.36206E-01
          max. resid. norm for Fia-block=  9.004D-03 for orbital      4a         
          max. resid. fock norm         =  3.041D-02 for orbital     19a         

 ITERATION  ENERGY          1e-ENERGY        2e-ENERGY     NORM[dD(SAO)]  TOL
   5  -76.240731183225    -119.42007963     35.961881634    0.128D-01 0.628D-09
                            Exc = -9.18169703526     Coul =  45.1435786695    
                              N = 10.000000296    
                            current damping = 0.500
 
          Norm of current diis error: 0.14001E-01
          max. resid. norm for Fia-block=  3.795D-03 for orbital      4a         
          max. resid. fock norm         =  1.257D-02 for orbital     19a         
          mo-orthogonalization: Cholesky decomposition

 ITERATION  ENERGY          1e-ENERGY        2e-ENERGY     NORM[dD(SAO)]  TOL
   6  -76.240777496538    -119.39979025     35.941545938    0.208D-02 0.592D-09
                            Exc = -9.17939810759     Coul =  45.1209440461    
                              N = 10.000000275    
                            current damping = 0.550
 
          Norm of current diis error: 0.41836E-02
          max. resid. norm for Fia-block=  1.216D-03 for orbital      4a         
          max. resid. fock norm         =  4.171D-03 for orbital     19a         

 ITERATION  ENERGY          1e-ENERGY        2e-ENERGY     NORM[dD(SAO)]  TOL
   7  -76.240782364158    -119.40323170     35.944982525    0.284D-03 0.568D-09
                            Exc = -9.17967486049     Coul =  45.1246573855    
                              N = 10.000000268    
                            current damping = 0.600
 
          Norm of current diis error: 0.14243E-02
          max. resid. norm for Fia-block=  4.224D-04 for orbital      4a         
          max. resid. fock norm         =  1.488D-03 for orbital     19a         

 ENERGY CONVERGED !

          Overall gridpoints after grid construction =         28369

 ITERATION  ENERGY          1e-ENERGY        2e-ENERGY     NORM[dD(SAO)]  TOL
   8  -76.240753324266    -119.40357898     35.945358840    0.201D-04 0.547D-09
                            Exc = -9.17967342270     Coul =  45.1250322631    
                              N = 10.000000099    
                            current damping = 0.450
 
          Norm of current diis error: 0.56595E-03
          max. resid. norm for Fia-block=  1.599D-04 for orbital      4a         
          max. resid. fock norm         =  5.538D-04 for orbital     19a         

 End of SCF iterations

   convergence criteria satisfied after    8 iterations


                  ------------------------------------------ 
                 |  total energy      =    -76.24075332427  |
                  ------------------------------------------ 
                 :  kinetic energy    =     75.39616828507  :
                 :  potential energy  =   -151.63692160933  :
                 :  virial theorem    =      1.98892213151  :
                 :  wavefunction norm =      1.00000000000  :
                  .......................................... 


 <geterg> : there is no data group $energy 


 <skperg> : $end is missing 


 orbitals $scfmo  will be written to file mos

    irrep                  1a          2a          3a          4a          5a   
 eigenvalues H        -18.77061    -0.82178    -0.40931    -0.25367    -0.21160
            eV        -510.7785    -22.3618    -11.1381     -6.9027     -5.7580
 occupation              2.0000      2.0000      2.0000      2.0000      2.0000 

    irrep                  6a          7a          8a          9a         10a   
 eigenvalues H         -0.13026     0.06819     0.38728     0.53640     0.85387
            eV          -3.5444      1.8556     10.5386     14.5964     23.2351
 
 
 
 
 ==============================================================================
                           electrostatic moments
 ==============================================================================

 reference point for electrostatic moments:    0.00000   0.00000   0.00000

 
              nuc           elec       ->  total
 ------------------------------------------------------------------------------
                          charge      
 ------------------------------------------------------------------------------
          10.000000     -10.000000       0.000000
 
 ------------------------------------------------------------------------------
                       dipole moment  
 ------------------------------------------------------------------------------
   x     -56.990337      56.756658      -0.233679
   y      -4.327661       3.970641      -0.357020
   z      -0.772879       0.420096      -0.352784
 
   | dipole moment | =     0.5536 a.u. =     1.4072 debye 
 
 ------------------------------------------------------------------------------
                     quadrupole moment
 ------------------------------------------------------------------------------
  xx     328.236687    -329.906404      -1.669718
  yy       6.408778     -10.064107      -3.655329
  zz       3.542120      -7.531419      -3.989300
  xy      28.601397     -25.021529       3.579868
  xz       1.673674      -0.758773       0.914902
  yz      -2.564840       1.587562      -0.977278
 
     1/3  trace=      -3.104782
     anisotropy=       6.967068
 
 ==============================================================================
 


    ------------------------------------------------------------------------
         total  cpu-time :   0.21 seconds
         total wall-time :   0.22 seconds
    ------------------------------------------------------------------------

   ****  ridft : all done  ****


    2020-12-01 10:45:25.247 

