
OPTIMIZATION CYCLE 4
Fri Nov 27 14:47:16 CET 2020
STARTING rdgrad ON 11 PROCESSORS!
RUNNING PROGRAM /home/soft/turbomole/7.1/bin/em64t-unknown-linux-gnu_mpi/rdgrad_mpi.
PLEASE WAIT UNTIL rdgrad HAS FINISHED.
MACHINEFILE is /scratch/julia/20201127-144705/jobtempdir/machinelist.used
 operating system is UNIX !
 hostname is nitrogen12
  this is node-proc. number 1 running on node nitrogen12
  the total number of node-proc. spawned is           11
  parallel platform: MPP, or cluster with fast interconnect

 rdgrad (nitrogen12) : TURBOMOLE V7.1 ( 20661 ) 10 Jun 2016 at 09:11:07
 Copyright (C) 2016 TURBOMOLE GmbH, Karlsruhe


    2020-11-27 14:47:17.792 


 gradient run will be profiled !



                                 r d g r a d

                          gradient for ridft program 

                        by K.Eichkorn, O.Treutler, H.Oehm, 
                             M.Haeser and R.Ahlrichs
                  (Chemical Physics Letters 242 (1995) 652-660)
                    parallel version: M.v.Arnim  &  R.Ahlrichs
                            quantum chemistry group
                             university  karlsruhe
                                   germany




                          References             
                                                 
          Density Functional:                              
              O. Treutler and R. Ahlrichs                      
              Efficient Molecular Numerical Integration Schemes
              J. chem. Phys. 102: 346 (1995)                   
          Parallel Version:                                
              Performance of parallel TURBOMOLE for Density    
              Functional Calculations                          
              M. v.Arnim and R. Ahlrichs                      
              J. comp. Chem. 19: 1746 (1998)                   
          RI-J Method:                                     
              Auxiliary Basis Sets to approximate Coulomb      
              Potentials                                       
              Chem. Phys. Lett. 240: 283 (1995)                
              K. Eichkorn, O. Treutler, H. Oehm, M. Haeser     
              and R. Ahlrichs                                  
              Chem. Phys. Lett. 242: 652 (1995)                
                                                           
              Auxiliary Basis Sets for Main Row Atoms and their
              Use to approximate Coulomb Potentials            
              K. Eichkorn, F. Weigend, O. Treutler and         
              R. Ahlrichs                                      
              Theo. Chem. Acc. 97: 119 (1997)                   
                                         



 integral neglect threshold       :  0.13E-08
 integral storage threshold THIZE :  0.10E-04
 integral storage threshold THIME :         5

 B-P86 functional
 exchange:    LDA + Becke (B88)
 correlation: LDA (VWN) + Perdew (P86)
 A DFT gradient calculation using the RI-J approximation will be carried out.
  
  
 AUXILIARY BASIS SET information:

 symmetry group of the molecule :   c1 

 the group has the following generators :
   c1(z)

    1 symmetry operations found

 there are 1 real representations :   a   

 maximum number of shells which are related by symmetry :  1


    mo occupation :
   irrep   mo's   occupied
    a       24        5
 
 number of basis functions   :           24
 number of occupied orbitals :            5
 

 number of off-diagonal lagrangians expected :  0

 biggest AO integral is expected to be     4.776656448
  
           ------------------
           density functional
           ------------------
 B-P86 functional
 exchange:    LDA + Becke (B88)
 correlation: LDA (VWN) + Perdew (P86)
 iterations will be done with small grid
  
 spherical integration : Lebedev's spherical grid
 spherical gridsize    :           4
    i.e. gridpoints    :         434
 value for diffuse not defined
 radial integration    : Chebyshev 2nd kind (scaling 3)
 radial gridsize       :           6
 integration cells     :           3
 partition function    : becke
 partition sharpness   :           3
  

 <rddim> : input of entry tasksize
           from data group '$pardft' failed !

               Default values taken

 <rddim> : input of entry memdiv
           from data group '$pardft' failed !

               Default values taken
  RDGRAD: memory allocation for DFT gridpoints
  MEMORY is divided by 1 as DEFAULT
 Each node can hold at most  the            1 -th part
 of the gridpoints    
  
           ------------------------
             RDGRAD - INFORMATION
           ------------------------
  
 Threshold for integral neglect (rithr1): 1E-10
 Threshold for integral neglect (rithr2): 1E-10
 Contributions to RI integral batches: 
  neglected integral batches:           0
  direct contribution:                 78
     
     number of direct tasks:          78
 ****************************************
 Memory allocated for RDGRAD: 1 MiB
 ****************************************
                                            
     

 nuclear repulsion energy  :   9.03189494048    

 
          -----------------
          -S- integrals
          -----------------

 1e-integrals will be neglected if expon. factor < 0.133678E-09
  MOs are in ASCII format !


 reading orbital data $scfmo  from file mos
 orbital characterization : scfconv=6
  Deviation of MOs from orthonormality   1.000399763029236E-010
  W A R N I N G 

    ----------------------------------------
     S+T+V CONTRIBUTIONS TO ENERGY GRADIENT 
    ----------------------------------------

 1e-integral 1st. derivatives will be neglected if expon. factor < 0.267807E-11


 setting up bound for integral derivative estimation

 increment for numerical differentiation : 0.00050000

 biggest AO integral is expected to be     4.776656448
 biggest cartesian 1st derivative AO integral is expected to be     8.648821438

 Integrated ground state density     :   10.00000004085279    


          ------------------------------------------------
           cartesian gradient of the energy (hartree/bohr)
          ------------------------------------------------

  ATOM      1 o           2 h           3 h 
dE/dx  0.1574039D-04 -0.2020120D-04  0.5497351D-05
dE/dy  0.2530882D-04 -0.2935487D-04  0.2478758D-05
dE/dz  0.3042762D-04  0.1820820D-05 -0.3564755D-04
 
 resulting FORCE  (fx,fy,fz) = (0.104D-05,-.157D-05,-.340D-05)
 resulting MOMENT (mx,my,mz) = (-.995D-06,-.231D-04,0.690D-05)


 exx =      -0.000018 eyy =      -0.000006 ezz =      -0.000008
 eyz =       0.000053 exz =       0.000049 exy =      -0.000007


 **********************************************************************
  |maximum component of gradient| : 0.35647549E-04  (atom  3 h )       
   gradient norm                  : 0.66289973E-04
 **********************************************************************
   ***  cartesian gradients written onto <gradient>  ***


     --- calculation of the energy gradient finished ---

 
 ! grave: sending quit signal to master process
 

    rdgrad.all profiling
  --------------------------------------------------------------------
             module   cpu total (s)       %  wall total (s)       %

          rdgrad.all             0.2   99.98             0.2  100.00
    rdgrad.before_tw             0.0   10.46             0.0   10.84
        rdgrad.input             0.0   10.45             0.0   10.84
           dft total             0.1   37.31             0.1   37.35
              grdsta             0.0    0.03             0.0    0.00
        input.oneint             0.0    0.10             0.0    0.00
       input.moinput             0.0    0.72             0.0    0.60
      moinput.orttst             0.0    0.05             0.0    0.00
        input_oneder             0.0    0.28             0.0    0.60
       rdgrad.twoder             0.1   53.12             0.1   53.01
       twoder.pargr1             0.0   22.29             0.0   22.29
      pargr1.bc.dens             0.0    1.41             0.0    1.20
         pargr1.work             0.0    0.00             0.0    0.00
    pargr1.gs.gammap             0.0    0.06             0.0    0.60
       twoder.pargr2             0.0   28.76             0.0   28.31
    pargr2.bc.gammaq             0.0    0.01             0.0    0.00
       pargr2.extask             0.0    0.29             0.0    0.00
      pargr2.gs.coul             0.0    0.07             0.0    0.00
      rdgrad.grdfinp             0.1   36.35             0.1   36.14
    xc contributions             0.1   35.54             0.1   35.54
          dft.extask             0.0    5.46             0.0    6.02
 


    ------------------------------------------------------------------------
         total  cpu-time :   0.18 seconds
         total wall-time :   0.23 seconds
    ------------------------------------------------------------------------

   ****  rdgrad : all done  ****


    2020-11-27 14:47:17.975 

fine, there is no data group "$actual step"
next step = relax
 hostname is nitrogen12

 statpt (nitrogen12) : TURBOMOLE V7.1 ( 20661 ) 10 Jun 2016 at 08:56:48
 Copyright (C) 2016 TURBOMOLE GmbH, Karlsruhe


    2020-11-27 14:47:18.090 



                           this is S T A T P T   


                     hessian and coordinate update for
                          stationary point search 

                     by barbara unterreiner, marek sierka,
                           and reinhart ahlrichs

                          quantum chemistry group
                          universitaet  karlsruhe
                                  germany


  Keyword $statpt not found - using default options
 
        ***************  Stationary point options ******************
        ************************************************************
           Maximum allowed trust radius:           3.000000E-01
           Minimum allowed trust radius:           1.000000E-03
           Initial trust radius:                   1.500000E-01
           GDIIS used if gradient norm <           1.000000E-02
           Number of previous steps for GDIIS:       5
           Hessian update method:                  BFGS
                        *** Convergence criteria ***                
           Threshold for energy change:            1.000000E-06
           Threshold for max displacement element: 1.000000E-03
           Threshold for max gradient element :    1.000000E-04
           Threshold for RMS of displacement:      5.000000E-04
           Threshold for RMS of gradient:          5.000000E-04
        ************************************************************
 
     Number of symmetry restricted degrees of freedom:     9
     Constituted by:     3 translational degrees of freedom
                         3 rotational degrees of freedom
                       3 internal degrees of freedom

  *************************************************************************
   ATOM                      CARTESIAN COORDINATES
    1 o      -5.60444915454962     -0.29019660391842      0.05387970766137
    2 h      -5.29214314372863     -0.19560046113030     -1.75966595516533
    3 h      -6.74893326372315     -1.72924541236252      0.17518367530415
  *************************************************************************
   ATOM                      CARTESIAN GRADIENTS  
    1 o       0.00001574038516      0.00002530881785      0.00003042761620
    2 h      -0.00002020119625     -0.00002935486593      0.00000182081972
    3 h       0.00000549735135      0.00000247875841     -0.00003564754864
  *************************************************************************

  norm of actual CARTESIAN gradient:  6.62900E-05
  norm of actual INTERNAL  gradient:  6.42669E-05

  ENERGY =     -76.3635821394 a.u.; # of cycle =    4

  Approximate Hessian read from $hessapprox data section

  Hessian updated according to BFGS formula
  Number of zero Hessian eigenvalues:   0
  FIRST criterion done:    789159151.518461                2
  Number of structures for GDIIS interpolation:    2
  GDIIS step:     0.000549

  Transforming internal coordinate displacements to Cartesian space
      Iteration   1 residual norm     5.485137E-04
      Iteration   2 residual norm     9.767117E-08
      Iteration   3 residual norm     3.140185E-16
      Transformation converged
      Residual norm:    3.140185E-16 after    3 iterations

      ****************************************************************** 
                          CONVERGENCE INFORMATION

                               Converged?     Value      Criterion
             Energy change         yes      0.0000003   0.0000010
             RMS of displacement   yes      0.0003167   0.0005000
             RMS of gradient       yes      0.0000371   0.0005000
             MAX displacement      yes      0.0005455   0.0010000
             MAX gradient          yes      0.0000633   0.0001000
      ****************************************************************** 


    ------------------------------------------------------------------------
         total  cpu-time :   0.01 seconds
         total wall-time :   0.01 seconds
    ------------------------------------------------------------------------

   ****  statpt : all done  ****


    2020-11-27 14:47:18.097 

fine, there is no data group "$actual step"
next step = ridft
STARTING ridft ON 11 PROCESSORS!
RUNNING PROGRAM /home/soft/turbomole/7.1/bin/em64t-unknown-linux-gnu_mpi/ridft_mpi.
PLEASE WAIT UNTIL ridft HAS FINISHED.
MACHINEFILE is /scratch/julia/20201127-144705/jobtempdir/machinelist.used
 operating system is UNIX !
 hostname is nitrogen12
  this is node-proc. number 1 running on node nitrogen12
  the total number of node-proc. spawned is           11
  parallel platform: MPP, or cluster with fast interconnect

 ridft (nitrogen12) : TURBOMOLE V7.1 ( 20661 ) 10 Jun 2016 at 09:11:07
 Copyright (C) 2016 TURBOMOLE GmbH, Karlsruhe


    2020-11-27 14:47:18.999 



                                  r i d f t

                        DFT program with RI approximation 
                                for coulomb part 




                                                 
                                 References:     
                                                 
          TURBOMOLE:                             
              R. Ahlrichs, M. Baer, M. Haeser, H. Horn, and
              C. Koelmel
              Electronic structure calculations on workstation
              computers: the program system TURBOMOLE
              Chem. Phys. Lett. 162: 165 (1989)
          Density Functional:                              
              O. Treutler and R. Ahlrichs                      
              Efficient Molecular Numerical Integration Schemes
              J. Chem. Phys. 102: 346 (1995)                   
          Parallel Version:                                
              Performance of parallel TURBOMOLE for Density    
              Functional Calculations                          
              M. v. Arnim and R. Ahlrichs                      
              J. Comp. Chem. 19: 1746 (1998)                   
          RI-J Method:                                     
              Auxiliary Basis Sets to approximate Coulomb      
              Potentials                                       
              Chem. Phys. Lett. 240: 283 (1995)                
              K. Eichkorn, O. Treutler, H. Oehm, M. Haeser     
              and R. Ahlrichs                                  
              Chem. Phys. Lett. 242: 652 (1995)                
                                                           
              Auxiliary Basis Sets for Main Row Atoms and their
              Use to approximate Coulomb Potentials            
              K. Eichkorn, F. Weigend, O. Treutler and         
              R. Ahlrichs                                      
              Theo. Chem. Acc. 97: 119 (1997)                   
                                                           
              Accurate Coulomb-fitting basis sets for H to Rn 
              F. Weigend                                        
              Phys. Chem. Chem. Phys. 8: 1057 (2006)            
                                                           
          Multipole accelerated RI-J (MARI-J):             
              Fast evaluation of the Coulomb potential for     
              electron densities using multipole accelerated   
              resolution of identity approximation             
              M. Sierka, A. Hogekamp and R. Ahlrichs           
              J. Chem. Phys. 118: 9136 (2003)                  
          RI-JK Method:                                     
              A fully direct RI-HF algorithm: Implementation,
              optimised auxiliary basis sets, demonstration of
              accuracy and efficiency                         
              F. Weigend                                      
              Phys. Chem. Chem. Phys. 4: 4285 (2002)           
          Two-component HF and DFT with spin-orbit coupling:  
              Self-consistent treatment of spin-orbit         
              interactions with efficient Hartree-Fock and    
              density functional methods                      
              M. K. Armbruster, F. Weigend, C. van Wüllen and 
              W. Klopper                                      
              Phys. Chem. Chem. Phys. 10: 1748 (2008)         
          Relativistic all-electron 2c calculations           
              An efficient implementation of two-component    
              relativistic exact-decoupling methods for large 
              molecules                                       
              D. Peng, N. Middendorf, F. Weigend, M. Reiher   
              J. Chem. Phys. 138, 184105 (2013)               
                                         


 


              +--------------------------------------------------+
              |      general information about current run       |
              +--------------------------------------------------+

 

 SCF run will be profiled !

 B-P86 functional
 exchange:    LDA + Becke (B88)
 correlation: LDA (VWN) + Perdew (P86)
 A DFT calculation using the RI-J approximation will be carried out.
 Allocatable memory for RI due to $ricore (MB):        2000


              +--------------------------------------------------+
              | Atomic coordinate, charge and isotop information |
              +--------------------------------------------------+

                    atomic coordinates            atom    charge  isotop
         -5.60454902   -0.29035790    0.05367689    o      8.000     0
         -5.29194888   -0.19536787   -1.75975632    h      1.000     0
         -6.74902767   -1.72931670    0.17547686    h      1.000     0
 
       center of nuclear mass  :   -5.65109316   -0.36555383   -0.04097109
       center of nuclear charge:   -5.68773687   -0.42475478   -0.11548644

              +--------------------------------------------------+
              |               basis set information              |
              +--------------------------------------------------+

              we will work with the 1s 3p 5d 7f 9g ... basis set
              ...i.e. with spherical basis functions...

   type   atoms  prim   cont   basis
   ---------------------------------------------------------------------------
    o        1     24     14   def2-SVP   [3s2p1d|7s4p1d]
    h        2      7      5   def2-SVP   [2s1p|4s1p]
   ---------------------------------------------------------------------------
   total:    3     38     24
   ---------------------------------------------------------------------------

   total number of primitive shells          :   17
   total number of contracted shells         :   12
   total number of cartesian basis functions :   25
   total number of SCF-basis functions       :   24


 integral neglect threshold       :  0.13E-08
 integral storage threshold THIZE :  0.10E-04
 integral storage threshold THIME :         5

 RI-J AUXILIARY BASIS SET information:

              we will work with the 1s 3p 5d 7f 9g ... basis set
              ...i.e. with spherical basis functions...

   type   atoms  prim   cont   basis
   ---------------------------------------------------------------------------
    o        1     70     49   def2-SVP   [6s4p3d1f1g|12s5p4d2f1g]
    h        2     16     11   def2-SVP   [3s1p1d|5s2p1d]
   ---------------------------------------------------------------------------
   total:    3    102     71
   ---------------------------------------------------------------------------

   total number of primitive shells          :   32
   total number of contracted shells         :   25
   total number of cartesian basis functions :   85
   total number of SCF-basis functions       :   71


 symmetry group of the molecule :   c1 

 the group has the following generators :
   c1(z)

    1 symmetry operations found

 there are 1 real representations :   a   

 maximum number of shells which are related by symmetry :  1


    mo occupation :
   irrep   mo's   occupied
    a       24        5
 
 number of basis functions   :           24
 number of occupied orbitals :            5
 
  
           ------------------
           density functional
           ------------------
 B-P86 functional
 exchange:    LDA + Becke (B88)
 correlation: LDA (VWN) + Perdew (P86)
 iterations will be done with small grid
  
 spherical integration : Lebedev's spherical grid
 spherical gridsize    :           4
    i.e. gridpoints    :         434
 value for diffuse not defined
 radial integration    : Chebyshev 2nd kind (scaling 3)
 radial gridsize       :           6
 integration cells     :           3
 partition function    : becke
 partition sharpness   :           3
  

 <rddim> : input of entry tasksize
           from data group '$pardft' failed !

               Default values taken

 <rddim> : input of entry memdiv
           from data group '$pardft' failed !

               Default values taken
  RIDFT: memory allocation for DFT gridpoints
  MEMORY is divided by 1 as DEFAULT
 Each node can hold at most  the            1 -th part
 of the gridpoints    

 biggest AO integral is expected to be     4.776656448
  
           ------------------------
               RI-J - INFORMATION
           ------------------------
 
 
 **************************************************
 *      MEMORY ALLOCATION FOR PARALLEL RI-DFT     *
 **************************************************
 
 
MEMORY FOR (MU NU/ ALPHA), SEQUENTIAL RUN               2000 MByte
 
            DIFFERENCE IN MEMORY NEED:       DIAG./SLAVE  
 
      TOTAL DIFFERENCE :                      1 MByte
 
      difference in xcore:                    1 MByte
      difference in fatmat:                   1 MByte
      getcor calls skipped by slaves:         1 MByte
 
 
           Integral memory available for diagonal.      2000 MByte
 
           Integral memory available for slave             0 MByte
 
         MEMORY FOR (MU NU/ ALPHA) ON DIAGONALIZER      2000 MByte
 
         MEMORY FOR (MU NU/ ALPHA) ON ONE SLAVE            0 MByte
 
         TOTAL MEMORY FOR (MU NU/ ALPHA),ALL NODES      2000 MByte
 
 Contributions to RI integral batches: 
  neglected integral batches:           0
  direct contribution:                  0
  memory contribution:          78
 Memory core needed for (P|Q) and Cholesky      1 MByte
 Memory core minimum needed except of (P|Q)     1 MByte
 Total minimum memory core needed (sum)         1 MByte
  
 ****************************************
 Memory allocated for RI-J  2001 MByte
 ****************************************
                                            

          ------------------------
          nuclear repulsion energy  :   9.03201785258    
          ------------------------

 
          -----------------
          -S integrals
          -----------------

 1e-integrals will be neglected if expon. factor < 0.133678E-09
 
          -----------------
          -T+V integrals
          -----------------

 1e-integrals will be neglected if expon. factor < 0.133678E-09
 Difference densities >>NOT<< switched on in parallel ridft!

 DIIS switched on: error vector is FDS-SDF
 Max. Iterations for DIIS is     :   4
 DIIS matrix (see manual) 
    Scaling factor of diagonals  :  1.200
    threshold for scaling factor :  0.000

 scf convergence criterion : increment of total energy < .1000000D-05
                  and increment of one-electron energy < .1000000D-02

  MOs are in ASCII format !


 automatic virtual orbital shift switched on 
      shift if e(lumo)-e(homo) < 0.10000000    


 reading orbital data $scfmo  from file mos
 orbital characterization : scfconv=6

 DSCF restart information will be dumped onto file mos


 Starting SCF iterations


 ITERATION  ENERGY          1e-ENERGY        2e-ENERGY     NORM[dD(SAO)]  TOL
   1  -76.363583450458    -122.79095170     37.395350396    0.000D+00 0.133D-08
                            Exc = -9.34483294611     Coul =  46.7401833424    
                              N = 9.9999824716    
                            current damping = 0.700
 
          max. resid. norm for Fia-block=  1.214D-04 for orbital      4a         
          max. resid. fock norm         =  7.189D-04 for orbital     23a         

 ITERATION  ENERGY          1e-ENERGY        2e-ENERGY     NORM[dD(SAO)]  TOL
   2  -76.363583484417    -122.79148754     37.395886203    0.000D+00 0.133D-08
                            Exc = -9.34489860828     Coul =  46.7407848111    
                              N = 9.9999824699    
                            current damping = 0.700
 
          Norm of current diis error: 0.18467E-03
          max. resid. norm for Fia-block=  5.257D-05 for orbital      4a         
          max. resid. fock norm         =  2.948D-04 for orbital     23a         

 ENERGY CONVERGED !


 ITERATION  ENERGY          1e-ENERGY        2e-ENERGY     NORM[dD(SAO)]  TOL
   3  -76.363582176087    -122.79110843     37.395508402    0.000D+00 0.133D-08
                            Exc = -9.34484494847     Coul =  46.7403533507    
                              N = 10.000000042    
                            current damping = 0.750
 
          Norm of current diis error: 0.96042E-04
          max. resid. norm for Fia-block=  2.091D-05 for orbital      4a         
          max. resid. fock norm         =  1.208D-04 for orbital     23a         

 End of SCF iterations

   convergence criteria satisfied after    3 iterations


                  ------------------------------------------ 
                 |  total energy      =    -76.36358217609  |
                  ------------------------------------------ 
                 :  kinetic energy    =     75.78590856416  :
                 :  potential energy  =   -152.14949074025  :
                 :  virial theorem    =      1.99243522114  :
                 :  wavefunction norm =      1.00000000000  :
                  .......................................... 


 orbitals $scfmo  will be written to file mos

    irrep                  1a          2a          3a          4a          5a   
 eigenvalues H        -18.76168    -0.89092    -0.45530    -0.31348    -0.23303
            eV        -510.5354    -24.2433    -12.3894     -8.5302     -6.3412
 occupation              2.0000      2.0000      2.0000      2.0000      2.0000 

    irrep                  6a          7a          8a          9a         10a   
 eigenvalues H          0.02949     0.10576     0.50739     0.57118     0.86213
            eV           0.8024      2.8780     13.8069     15.5428     23.4600
 
 
 
 
 ==============================================================================
                           electrostatic moments
 ==============================================================================

 reference point for electrostatic moments:    0.00000   0.00000   0.00000

 
              nuc           elec       ->  total
 ------------------------------------------------------------------------------
                          charge      
 ------------------------------------------------------------------------------
          10.000000     -10.000000       0.000000
 
 ------------------------------------------------------------------------------
                       dipole moment  
 ------------------------------------------------------------------------------
   x     -56.877369      56.596714      -0.280655
   y      -4.247548       3.794114      -0.453434
   z      -1.154864       0.584140      -0.570724
 
   | dipole moment | =     0.7811 a.u. =     1.9853 debye 
 
 ------------------------------------------------------------------------------
                     quadrupole moment
 ------------------------------------------------------------------------------
  xx     324.841855    -326.264219      -1.422364
  yy       3.703167      -7.709669      -4.006502
  zz       3.150584      -6.920569      -3.769985
  xy      25.723684     -22.326222       3.397462
  xz       5.721564      -2.898455       2.823110
  yz      -0.084339       0.019599      -0.064740
 
     1/3  trace=      -3.066284
     anisotropy=       8.041963
 
 ==============================================================================
 

    ridft profiling
  --------------------------------------------------------------------
             module   cpu total (s)       %  wall total (s)       %

               RIDFT             0.4   99.99             0.4  100.00
         Ridft_b_scf             0.0    5.38             0.0    5.22
        b_scf_prelim             0.0    0.28             0.0    0.25
        b_scf_molinp             0.0    1.06             0.0    1.00
         b_scf_init0             0.0    0.07             0.0    0.25
        b_scf_auxbas             0.0    0.81             0.0    0.75
      b_scf_symmetry             0.0    0.49             0.0    0.50
         b_scf_cosmo             0.0    0.01             0.0    0.00
        b_scf_params             0.0    1.32             0.0    1.24
          b_scf_ri-j             0.0    0.51             0.0    0.50
    b_scf_ri-j_auxpq             0.0    0.44             0.0    0.50
     ri-j_auxpq_chol             0.0    0.09             0.0    0.00
         b_scf_1elec             0.0    0.47             0.0    0.25
       b_scf_moinput             0.0    0.32             0.0    0.25
     moinput_orthmos             0.0    0.03             0.0    0.00
    b_scf_dft-dstmax             0.0    0.01             0.0    0.00
           Ridft_scf             0.4   93.71             0.4   89.30
          Scf_b_loop             0.0    0.36             0.0    0.25
                noga             0.0    0.02             0.0    0.00
            Scf_loop             0.4   92.47             0.4   88.31
     scf_loop_mkdmat             0.0    0.03             0.0    0.00
       scf_loop_ri-j             0.1   35.62             0.1   34.08
      parlp1.bc.dens             0.0    1.04             0.0    1.00
        parlp1.gs.gp             0.0    0.01             0.0    0.00
        parlp2.bc.gq             0.0    0.01             0.0    0.00
        scf_loop_dft             0.2   55.57             0.2   52.99
        dft_grid_con             0.0    0.18             0.0    0.25
     scf_loop_symcar             0.0    0.01             0.0    0.00
     scf_loop_energy             0.0    0.06             0.0    0.00
     scf_loop_mkfock             0.0    0.01             0.0    0.00
       scf_loop_diis             0.0    0.14             0.0    0.25
       scf_loop_diag             0.0    0.17             0.0    0.00
         diag_tritrn             0.0    0.02             0.0    0.00
          diag_rdiag             0.0    0.06             0.0    0.00
     scf_loop_modump             0.0    0.55             0.0    0.50
          Scf_a_loop             0.0    0.86             0.0    0.75
         Ridft_a_scf             0.0    0.89             0.0    5.47
         a_scf_fanal             0.0    0.68             0.0    0.75
 


    ------------------------------------------------------------------------
         total  cpu-time :   0.39 seconds
         total wall-time :   0.47 seconds
    ------------------------------------------------------------------------

   ****  ridft : all done  ****


    2020-11-27 14:47:19.420 

fine, there is no data group "$actual step"
next step = rdgrad
 energy change  : actual value =  -0.2630E-06 threshold =   0.1000E-05
 geom. gradient : actual value =   0.6330E-04 threshold =   0.1000E-03

CONVERGENCY CRITERIA FULFILLED IN CYCLE 4

