  this is node-proc. number 9 running on node nitrogen12
  the total number of node-proc. spawned is           11
  parallel platform: MPP, or cluster with fast interconnect

 ridft (nitrogen12) : TURBOMOLE V7.1 ( 20661 ) 10 Jun 2016 at 09:11:07
 Copyright (C) 2016 TURBOMOLE GmbH, Karlsruhe


    2020-11-27 14:47:18.993 



                                  r i d f t

                        DFT program with RI approximation 
                                for coulomb part 




                                                 
                                 References:     
                                                 
          TURBOMOLE:                             
              R. Ahlrichs, M. Baer, M. Haeser, H. Horn, and
              C. Koelmel
              Electronic structure calculations on workstation
              computers: the program system TURBOMOLE
              Chem. Phys. Lett. 162: 165 (1989)
          Density Functional:                              
              O. Treutler and R. Ahlrichs                      
              Efficient Molecular Numerical Integration Schemes
              J. Chem. Phys. 102: 346 (1995)                   
          Parallel Version:                                
              Performance of parallel TURBOMOLE for Density    
              Functional Calculations                          
              M. v. Arnim and R. Ahlrichs                      
              J. Comp. Chem. 19: 1746 (1998)                   
          RI-J Method:                                     
              Auxiliary Basis Sets to approximate Coulomb      
              Potentials                                       
              Chem. Phys. Lett. 240: 283 (1995)                
              K. Eichkorn, O. Treutler, H. Oehm, M. Haeser     
              and R. Ahlrichs                                  
              Chem. Phys. Lett. 242: 652 (1995)                
                                                           
              Auxiliary Basis Sets for Main Row Atoms and their
              Use to approximate Coulomb Potentials            
              K. Eichkorn, F. Weigend, O. Treutler and         
              R. Ahlrichs                                      
              Theo. Chem. Acc. 97: 119 (1997)                   
                                                           
              Accurate Coulomb-fitting basis sets for H to Rn 
              F. Weigend                                        
              Phys. Chem. Chem. Phys. 8: 1057 (2006)            
                                                           
          Multipole accelerated RI-J (MARI-J):             
              Fast evaluation of the Coulomb potential for     
              electron densities using multipole accelerated   
              resolution of identity approximation             
              M. Sierka, A. Hogekamp and R. Ahlrichs           
              J. Chem. Phys. 118: 9136 (2003)                  
          RI-JK Method:                                     
              A fully direct RI-HF algorithm: Implementation,
              optimised auxiliary basis sets, demonstration of
              accuracy and efficiency                         
              F. Weigend                                      
              Phys. Chem. Chem. Phys. 4: 4285 (2002)           
          Two-component HF and DFT with spin-orbit coupling:  
              Self-consistent treatment of spin-orbit         
              interactions with efficient Hartree-Fock and    
              density functional methods                      
              M. K. Armbruster, F. Weigend, C. van Wüllen and 
              W. Klopper                                      
              Phys. Chem. Chem. Phys. 10: 1748 (2008)         
          Relativistic all-electron 2c calculations           
              An efficient implementation of two-component    
              relativistic exact-decoupling methods for large 
              molecules                                       
              D. Peng, N. Middendorf, F. Weigend, M. Reiher   
              J. Chem. Phys. 138, 184105 (2013)               
                                         


 


              +--------------------------------------------------+
              |      general information about current run       |
              +--------------------------------------------------+

 

 SCF run will be profiled !

 A DFT calculation using the RI-J approximation will be carried out.
 Allocatable memory for RI due to $ricore (MB):        2000


              +--------------------------------------------------+
              | Atomic coordinate, charge and isotop information |
              +--------------------------------------------------+

                    atomic coordinates            atom    charge  isotop
         -5.60454902   -0.29035790    0.05367689    o      8.000     0
         -5.29194888   -0.19536787   -1.75975632    h      1.000     0
         -6.74902767   -1.72931670    0.17547686    h      1.000     0
 
       center of nuclear mass  :   -5.65109316   -0.36555383   -0.04097109
       center of nuclear charge:   -5.68773687   -0.42475478   -0.11548644

              +--------------------------------------------------+
              |               basis set information              |
              +--------------------------------------------------+

              we will work with the 1s 3p 5d 7f 9g ... basis set
              ...i.e. with spherical basis functions...

   type   atoms  prim   cont   basis
   ---------------------------------------------------------------------------
    o        1     24     14   def2-SVP   [3s2p1d|7s4p1d]
    h        2      7      5   def2-SVP   [2s1p|4s1p]
   ---------------------------------------------------------------------------
   total:    3     38     24
   ---------------------------------------------------------------------------

   total number of primitive shells          :   17
   total number of contracted shells         :   12
   total number of cartesian basis functions :   25
   total number of SCF-basis functions       :   24


 integral neglect threshold       :  0.13E-08
 integral storage threshold THIZE :  0.10E-04
 integral storage threshold THIME :         5

 RI-J AUXILIARY BASIS SET information:

              we will work with the 1s 3p 5d 7f 9g ... basis set
              ...i.e. with spherical basis functions...

   type   atoms  prim   cont   basis
   ---------------------------------------------------------------------------
    o        1     70     49   def2-SVP   [6s4p3d1f1g|12s5p4d2f1g]
    h        2     16     11   def2-SVP   [3s1p1d|5s2p1d]
   ---------------------------------------------------------------------------
   total:    3    102     71
   ---------------------------------------------------------------------------

   total number of primitive shells          :   32
   total number of contracted shells         :   25
   total number of cartesian basis functions :   85
   total number of SCF-basis functions       :   71


 symmetry group of the molecule :   c1 

 the group has the following generators :
   c1(z)

    1 symmetry operations found

 there are 1 real representations :   a   

 maximum number of shells which are related by symmetry :  1


    mo occupation :
   irrep   mo's   occupied
    a       24        5
 
 number of basis functions   :           24
 number of occupied orbitals :            5
 
  
           ------------------
           density functional
           ------------------
 iterations will be done with small grid
  
 spherical integration : Lebedev's spherical grid
 spherical gridsize    :           4
    i.e. gridpoints    :         434
 value for diffuse not defined
 radial integration    : Chebyshev 2nd kind (scaling 3)
 radial gridsize       :           6
 integration cells     :           3
 partition function    : becke
 partition sharpness   :           3
  
  RIDFT: memory allocation for DFT gridpoints
  MEMORY is divided by 1 as DEFAULT
 Each node can hold at most  the            1 -th part
 of the gridpoints    

 biggest AO integral is expected to be     4.776656448
  
           ------------------------
               RI-J - INFORMATION
           ------------------------
 
 
 **************************************************
 *      MEMORY ALLOCATION FOR PARALLEL RI-DFT     *
 **************************************************
 
 
MEMORY FOR (MU NU/ ALPHA), SEQUENTIAL RUN               2000 MByte
 
            DIFFERENCE IN MEMORY NEED:       DIAG./SLAVE  
 
      TOTAL DIFFERENCE :                      1 MByte
 
      difference in xcore:                    1 MByte
      difference in fatmat:                   1 MByte
      getcor calls skipped by slaves:         1 MByte
 
 
           Integral memory available for diagonal.      2000 MByte
 
           Integral memory available for slave             0 MByte
 
         MEMORY FOR (MU NU/ ALPHA) ON DIAGONALIZER      2000 MByte
 
         MEMORY FOR (MU NU/ ALPHA) ON ONE SLAVE            0 MByte
 
         TOTAL MEMORY FOR (MU NU/ ALPHA),ALL NODES      2000 MByte
 
 Contributions to RI integral batches: 
  neglected integral batches:           0
  direct contribution:                  0
  memory contribution:          78
 Memory core needed for (P|Q) and Cholesky      1 MByte
 Memory core minimum needed except of (P|Q)     1 MByte
 Total minimum memory core needed (sum)         1 MByte
  
 ****************************************
 Memory allocated for RI-J     1 MByte
 ****************************************
                                            
 
          -----------------
          -T+V- integrals
          -----------------

 1e-integrals will be neglected if expon. factor < 0.133678E-09
  MOs are in ASCII format !

  <cliscf> allocation scratch: nstore,ifscr1        1366           1
  <cliscf> allocation iscrat: ntola,iscoff          25           1
 CLISCF: BEGIN ITERATION           1
 cliscf: after pardft: e2xc=  -3.38256973855968     
 cliscf: after pardft: itag=          27
 CLISCF: BEGIN ITERATION           2
 cliscf: after pardft: e2xc=  -3.38256821247887     
 cliscf: after pardft: itag=          27
 CLISCF: BEGIN ITERATION           3
 cliscf: after pardft: e2xc=  -3.38256237124087     
 cliscf: after pardft: itag=          28
 cliscf: after pardft: e2xc= -0.137216607094764     
 cliscf: after pardft: itag=          27

    ridft profiling
  --------------------------------------------------------------------
             module   cpu total (s)       %  wall total (s)       %

               RIDFT             0.4   99.99             0.4  100.00
         Ridft_b_scf             0.0    4.48             0.0    6.03
        b_scf_prelim             0.0    1.86             0.0    1.76
        b_scf_molinp             0.0    0.49             0.0    1.01
         b_scf_init0             0.0    0.07             0.0    0.00
        b_scf_auxbas             0.0    0.41             0.0    1.01
      b_scf_symmetry             0.0    0.15             0.0    0.25
         b_scf_cosmo             0.0    0.01             0.0    0.00
        b_scf_params             0.0    0.84             0.0    1.51
          b_scf_ri-j             0.0    0.22             0.0    0.25
    b_scf_ri-j_auxpq             0.0    0.15             0.0    0.00
     ri-j_auxpq_chol             0.1   22.42    1606488439.0  ******
         b_scf_1elec             0.0    0.39             0.0    0.25
       b_scf_moinput             0.0    0.01             0.0    0.00
    b_scf_dft-dstmax             0.0    0.01             0.0    0.00
        Ridft_scf_cl             0.4   95.36             0.4   90.95
       cliscf.parlp1             0.0    0.05             0.0    0.00
      parlp1.bc.dens             0.0    0.01             0.0    0.00
        parlp1.gs.gp             0.0    0.01             0.0    0.00
       cliscf.parlp2             0.0    1.09             0.0    1.01
        parlp2.bc.gq             0.0    1.06             0.0    1.01
       cliscf.pardft             0.2   54.90             0.2   52.26
        dft_grid_con             0.0    0.15             0.0    0.25
       cliscf.tritrn             0.0    0.01             0.0    0.00
        cliscf.rdiag             0.0    0.01             0.0    0.00
         Ridft_a_scf             0.0    0.14             0.0    3.02
         a_scf_fanal             0.0    0.00             0.0    0.00
 


    ------------------------------------------------------------------------
         total  cpu-time :   0.40 seconds
         total wall-time :   0.46 seconds
    ------------------------------------------------------------------------

   ****  ridft : all done  ****


    2020-11-27 14:47:19.413 

