--- PyADF *** new job *** PyADF ---
 operating system is UNIX !
 hostname is nitrogen02

 ridft (nitrogen02) : TURBOMOLE V7.1 ( 20661 ) 10 Jun 2016 at 08:56:48
 Copyright (C) 2016 TURBOMOLE GmbH, Karlsruhe


    2020-12-01 10:44:19.624 



                                  r i d f t

                        DFT program with RI approximation 
                                for coulomb part 




                                                 
                                 References:     
                                                 
          TURBOMOLE:                             
              R. Ahlrichs, M. Baer, M. Haeser, H. Horn, and
              C. Koelmel
              Electronic structure calculations on workstation
              computers: the program system TURBOMOLE
              Chem. Phys. Lett. 162: 165 (1989)
          Density Functional:                              
              O. Treutler and R. Ahlrichs                      
              Efficient Molecular Numerical Integration Schemes
              J. Chem. Phys. 102: 346 (1995)                   
          Parallel Version:                                
              Performance of parallel TURBOMOLE for Density    
              Functional Calculations                          
              M. v. Arnim and R. Ahlrichs                      
              J. Comp. Chem. 19: 1746 (1998)                   
          RI-J Method:                                     
              Auxiliary Basis Sets to approximate Coulomb      
              Potentials                                       
              Chem. Phys. Lett. 240: 283 (1995)                
              K. Eichkorn, O. Treutler, H. Oehm, M. Haeser     
              and R. Ahlrichs                                  
              Chem. Phys. Lett. 242: 652 (1995)                
                                                           
              Auxiliary Basis Sets for Main Row Atoms and their
              Use to approximate Coulomb Potentials            
              K. Eichkorn, F. Weigend, O. Treutler and         
              R. Ahlrichs                                      
              Theo. Chem. Acc. 97: 119 (1997)                   
                                                           
              Accurate Coulomb-fitting basis sets for H to Rn 
              F. Weigend                                        
              Phys. Chem. Chem. Phys. 8: 1057 (2006)            
                                                           
          Multipole accelerated RI-J (MARI-J):             
              Fast evaluation of the Coulomb potential for     
              electron densities using multipole accelerated   
              resolution of identity approximation             
              M. Sierka, A. Hogekamp and R. Ahlrichs           
              J. Chem. Phys. 118: 9136 (2003)                  
          RI-JK Method:                                     
              A fully direct RI-HF algorithm: Implementation,
              optimised auxiliary basis sets, demonstration of
              accuracy and efficiency                         
              F. Weigend                                      
              Phys. Chem. Chem. Phys. 4: 4285 (2002)           
          Two-component HF and DFT with spin-orbit coupling:  
              Self-consistent treatment of spin-orbit         
              interactions with efficient Hartree-Fock and    
              density functional methods                      
              M. K. Armbruster, F. Weigend, C. van Wüllen and 
              W. Klopper                                      
              Phys. Chem. Chem. Phys. 10: 1748 (2008)         
          Relativistic all-electron 2c calculations           
              An efficient implementation of two-component    
              relativistic exact-decoupling methods for large 
              molecules                                       
              D. Peng, N. Middendorf, F. Weigend, M. Reiher   
              J. Chem. Phys. 138, 184105 (2013)               
                                         


 


              +--------------------------------------------------+
              |      general information about current run       |
              +--------------------------------------------------+

 
 B-P86 functional
 exchange:    LDA + Becke (B88)
 correlation: LDA (VWN) + Perdew (P86)
 A DFT calculation using the RI-J approximation will be carried out.
 Allocatable memory for RI due to $ricore (MB):        2000


              +--------------------------------------------------+
              | Atomic coordinate, charge and isotop information |
              +--------------------------------------------------+

                    atomic coordinates            atom    charge  isotop
         -5.61527500   -0.29467698    0.10956179    o      8.000     0
         -5.11646690   -0.12492897   -2.67556233    h      1.000     0
         -6.75426651   -1.73123477    0.20394908    h      1.000     0
 
       center of nuclear mass  :   -5.65109368   -0.36555581   -0.04098669
       center of nuclear charge:   -5.67929334   -0.42135796   -0.15951190

              +--------------------------------------------------+
              |               basis set information              |
              +--------------------------------------------------+

              we will work with the 1s 3p 5d 7f 9g ... basis set
              ...i.e. with spherical basis functions...

   type   atoms  prim   cont   basis
   ---------------------------------------------------------------------------
    o        1     24     14   def2-SVP   [3s2p1d|7s4p1d]
    h        2      7      5   def2-SVP   [2s1p|4s1p]
   ---------------------------------------------------------------------------
   total:    3     38     24
   ---------------------------------------------------------------------------

   total number of primitive shells          :   17
   total number of contracted shells         :   12
   total number of cartesian basis functions :   25
   total number of SCF-basis functions       :   24


 integral neglect threshold       :  0.13E-08
 integral storage threshold THIZE :  0.10E-04
 integral storage threshold THIME :         5

 RI-J AUXILIARY BASIS SET information:

              we will work with the 1s 3p 5d 7f 9g ... basis set
              ...i.e. with spherical basis functions...

   type   atoms  prim   cont   basis
   ---------------------------------------------------------------------------
    o        1     70     49   def2-SVP   [6s4p3d1f1g|12s5p4d2f1g]
    h        2     16     11   def2-SVP   [3s1p1d|5s2p1d]
   ---------------------------------------------------------------------------
   total:    3    102     71
   ---------------------------------------------------------------------------

   total number of primitive shells          :   32
   total number of contracted shells         :   25
   total number of cartesian basis functions :   85
   total number of SCF-basis functions       :   71


 symmetry group of the molecule :   c1 

 the group has the following generators :
   c1(z)

    1 symmetry operations found

 there are 1 real representations :   a   

 maximum number of shells which are related by symmetry :  1


    mo occupation :
   irrep   mo's   occupied
    a       24        5
 
 number of basis functions   :           24
 number of occupied orbitals :            5
 
  
           ------------------
           density functional
           ------------------
 B-P86 functional
 exchange:    LDA + Becke (B88)
 correlation: LDA (VWN) + Perdew (P86)
 iterations will be done with small grid
  
 spherical integration : Lebedev's spherical grid
 spherical gridsize    :           4
    i.e. gridpoints    :         434
 value for diffuse not defined
 radial integration    : Chebyshev 2nd kind (scaling 3)
 radial gridsize       :           6
 integration cells     :           3
 partition function    : becke
 partition sharpness   :           3
  

 biggest AO integral is expected to be     4.776656448
  
           ------------------------
               RI-J - INFORMATION
           ------------------------
 Contributions to RI integral batches: 
  neglected integral batches:           0
  direct contribution:                  0
  memory contribution:          78
 Memory core needed for (P|Q) and Cholesky      1 MByte
 Memory core minimum needed except of (P|Q)     1 MByte
 Total minimum memory core needed (sum)         1 MByte
  
 ****************************************
 Memory allocated for RI-J     1 MByte
 ****************************************
                                            

          ------------------------
          nuclear repulsion energy  :   7.45189841500    
          ------------------------

 
          -----------------
          -S,T+V- integrals
          -----------------

 1e-integrals will be neglected if expon. factor < 0.133678E-09
 
   Difference densities algorithm switched on.
   The maximal number of linear combinations of
   difference densities is          20 .

 DIIS switched on: error vector is FDS-SDF
 Max. Iterations for DIIS is     :   4
 DIIS matrix (see manual) 
    Scaling factor of diagonals  :  1.200
    threshold for scaling factor :  0.000

 scf convergence criterion : increment of total energy < .1000000D-05
                  and increment of one-electron energy < .1000000D-02


 <geterg> : there is no data group $energy 

  MOs are in ASCII format !


 automatic virtual orbital shift switched on 
      shift if e(lumo)-e(homo) < 0.10000000    


 reading orbital data $scfmo  from file mos
 orbital characterization : expanded
 mo provided and orthogonalized by Cholesky decomposition

 DSCF restart information will be dumped onto file mos


 Starting SCF iterations

          Overall gridpoints after grid construction =          7379

 ITERATION  ENERGY          1e-ENERGY        2e-ENERGY     NORM[dD(SAO)]  TOL
   1  -76.032048861773    -122.10534762     38.621400346    0.000D+00 0.133D-08
                            Exc = -9.47313610494     Coul =  48.0945364506    
                              N = 10.000002778    
                            current damping = 0.700
 
          max. resid. norm for Fia-block=  2.790D-01 for orbital      3a         
          max. resid. fock norm         =  1.262D+00 for orbital     22a         

 ITERATION  ENERGY          1e-ENERGY        2e-ENERGY     NORM[dD(SAO)]  TOL
   2  -76.226325091427    -120.08957229     36.411348786    0.438D+00 0.881D-09
                            Exc = -9.18650319686     Coul =  45.5978519833    
                              N = 10.000004076    
                            current damping = 0.650
 
          Norm of current diis error: 0.42632    
          max. resid. norm for Fia-block=  9.888D-02 for orbital      1a         
          max. resid. fock norm         =  1.228D-01 for orbital     10a         

 ITERATION  ENERGY          1e-ENERGY        2e-ENERGY     NORM[dD(SAO)]  TOL
   3  -76.260750960684    -120.06738910     36.354739726    0.215D+00 0.695D-09
                            Exc = -9.20976473491     Coul =  45.5645044609    
                              N = 10.000003833    
                            current damping = 0.500
 
          Norm of current diis error: 0.20937    
          max. resid. norm for Fia-block=  3.961D-02 for orbital      4a         
          max. resid. fock norm         =  4.585D-02 for orbital      6a         

 ITERATION  ENERGY          1e-ENERGY        2e-ENERGY     NORM[dD(SAO)]  TOL
   4  -76.272000475600    -119.61549370     35.891594805    0.849D-01 0.574D-09
                            Exc = -9.17287031454     Coul =  45.0644651195    
                              N = 10.000003871    
                            current damping = 0.350
 
          Norm of current diis error: 0.80654E-01
          max. resid. norm for Fia-block=  1.812D-02 for orbital      2a         
          max. resid. fock norm         =  2.796D-02 for orbital     18a         

 ITERATION  ENERGY          1e-ENERGY        2e-ENERGY     NORM[dD(SAO)]  TOL
   5  -76.273468657990    -119.79453940     36.069172332    0.415D-01 0.536D-09
                            Exc = -9.20104038744     Coul =  45.2702127193    
                              N = 10.000003924    
                            current damping = 0.400
 
          Norm of current diis error: 0.27281E-01
          max. resid. norm for Fia-block=  4.593D-03 for orbital      4a         
          max. resid. fock norm         =  5.527D-03 for orbital     18a         
          mo-orthogonalization: Cholesky decomposition

 ITERATION  ENERGY          1e-ENERGY        2e-ENERGY     NORM[dD(SAO)]  TOL
   6  -76.273629486440    -119.71194004     35.986412136    0.391D-02 0.514D-09
                            Exc = -9.19262788648     Coul =  45.1790400230    
                              N = 10.000003967    
                            current damping = 0.450
 
          Norm of current diis error: 0.89935E-02
          max. resid. norm for Fia-block=  1.338D-03 for orbital      2a         
          max. resid. fock norm         =  2.644D-03 for orbital     18a         

 ITERATION  ENERGY          1e-ENERGY        2e-ENERGY     NORM[dD(SAO)]  TOL
   7  -76.273641422213    -119.72960260     36.004062766    0.794D-03 0.502D-09
                            Exc = -9.19487033586     Coul =  45.1989331015    
                              N = 10.000003971    
                            current damping = 0.500
 
          Norm of current diis error: 0.14855E-02
          max. resid. norm for Fia-block=  3.777D-04 for orbital      2a         
          max. resid. fock norm         =  6.528D-04 for orbital     18a         

 ENERGY CONVERGED !

          Overall gridpoints after grid construction =         28367

 ITERATION  ENERGY          1e-ENERGY        2e-ENERGY     NORM[dD(SAO)]  TOL
   8  -76.273634141357    -119.72874500     36.003212441    0.146D-03 0.493D-09
                            Exc = -9.19486411140     Coul =  45.1980765527    
                              N = 10.000000062    
                            current damping = 0.550
 
          Norm of current diis error: 0.66366E-03
          max. resid. norm for Fia-block=  1.316D-04 for orbital      2a         
          max. resid. fock norm         =  2.497D-04 for orbital     18a         

 End of SCF iterations

   convergence criteria satisfied after    8 iterations


                  ------------------------------------------ 
                 |  total energy      =    -76.27363414136  |
                  ------------------------------------------ 
                 :  kinetic energy    =     75.47576862649  :
                 :  potential energy  =   -151.74940276785  :
                 :  virial theorem    =      1.98953943228  :
                 :  wavefunction norm =      1.00000000000  :
                  .......................................... 


 <geterg> : there is no data group $energy 


 <skperg> : $end is missing 


 orbitals $scfmo  will be written to file mos

    irrep                  1a          2a          3a          4a          5a   
 eigenvalues H        -18.78915    -0.84751    -0.39370    -0.30922    -0.22616
            eV        -511.2828    -23.0621    -10.7131     -8.4145     -6.1543
 occupation              2.0000      2.0000      2.0000      2.0000      2.0000 

    irrep                  6a          7a          8a          9a         10a   
 eigenvalues H         -0.11053     0.06920     0.40323     0.54864     0.84644
            eV          -3.0078      1.8829     10.9726     14.9294     23.0330
 
 
 
 
 ==============================================================================
                           electrostatic moments
 ==============================================================================

 reference point for electrostatic moments:    0.00000   0.00000   0.00000

 
              nuc           elec       ->  total
 ------------------------------------------------------------------------------
                          charge      
 ------------------------------------------------------------------------------
          10.000000     -10.000000      -0.000000
 
 ------------------------------------------------------------------------------
                       dipole moment  
 ------------------------------------------------------------------------------
   x     -56.792933      56.519301      -0.273632
   y      -4.213580       3.767753      -0.445827
   z      -1.595119       1.016401      -0.578718
 
   | dipole moment | =     0.7801 a.u. =     1.9828 debye 
 
 ------------------------------------------------------------------------------
                     quadrupole moment
 ------------------------------------------------------------------------------
  xx     324.048856    -325.852109      -1.803253
  yy       3.707457      -8.042152      -4.334694
  zz       7.296259     -10.444216      -3.147956
  xy      25.569954     -22.195674       3.374280
  xz       7.390143      -4.693544       2.696599
  yz      -0.277111       0.157644      -0.119467
 
     1/3  trace=      -3.095301
     anisotropy=       7.799195
 
 ==============================================================================
 


    ------------------------------------------------------------------------
         total  cpu-time :   0.21 seconds
         total wall-time :   0.22 seconds
    ------------------------------------------------------------------------

   ****  ridft : all done  ****


    2020-12-01 10:44:19.840 

--- PyADF *** new job *** PyADF ---
 operating system is UNIX !
 hostname is nitrogen02

 ridft (nitrogen02) : TURBOMOLE V7.1 ( 20661 ) 10 Jun 2016 at 08:56:48
 Copyright (C) 2016 TURBOMOLE GmbH, Karlsruhe


    2020-12-01 10:44:20.098 



                                  r i d f t

                        DFT program with RI approximation 
                                for coulomb part 




                                                 
                                 References:     
                                                 
          TURBOMOLE:                             
              R. Ahlrichs, M. Baer, M. Haeser, H. Horn, and
              C. Koelmel
              Electronic structure calculations on workstation
              computers: the program system TURBOMOLE
              Chem. Phys. Lett. 162: 165 (1989)
          Density Functional:                              
              O. Treutler and R. Ahlrichs                      
              Efficient Molecular Numerical Integration Schemes
              J. Chem. Phys. 102: 346 (1995)                   
          Parallel Version:                                
              Performance of parallel TURBOMOLE for Density    
              Functional Calculations                          
              M. v. Arnim and R. Ahlrichs                      
              J. Comp. Chem. 19: 1746 (1998)                   
          RI-J Method:                                     
              Auxiliary Basis Sets to approximate Coulomb      
              Potentials                                       
              Chem. Phys. Lett. 240: 283 (1995)                
              K. Eichkorn, O. Treutler, H. Oehm, M. Haeser     
              and R. Ahlrichs                                  
              Chem. Phys. Lett. 242: 652 (1995)                
                                                           
              Auxiliary Basis Sets for Main Row Atoms and their
              Use to approximate Coulomb Potentials            
              K. Eichkorn, F. Weigend, O. Treutler and         
              R. Ahlrichs                                      
              Theo. Chem. Acc. 97: 119 (1997)                   
                                                           
              Accurate Coulomb-fitting basis sets for H to Rn 
              F. Weigend                                        
              Phys. Chem. Chem. Phys. 8: 1057 (2006)            
                                                           
          Multipole accelerated RI-J (MARI-J):             
              Fast evaluation of the Coulomb potential for     
              electron densities using multipole accelerated   
              resolution of identity approximation             
              M. Sierka, A. Hogekamp and R. Ahlrichs           
              J. Chem. Phys. 118: 9136 (2003)                  
          RI-JK Method:                                     
              A fully direct RI-HF algorithm: Implementation,
              optimised auxiliary basis sets, demonstration of
              accuracy and efficiency                         
              F. Weigend                                      
              Phys. Chem. Chem. Phys. 4: 4285 (2002)           
          Two-component HF and DFT with spin-orbit coupling:  
              Self-consistent treatment of spin-orbit         
              interactions with efficient Hartree-Fock and    
              density functional methods                      
              M. K. Armbruster, F. Weigend, C. van Wüllen and 
              W. Klopper                                      
              Phys. Chem. Chem. Phys. 10: 1748 (2008)         
          Relativistic all-electron 2c calculations           
              An efficient implementation of two-component    
              relativistic exact-decoupling methods for large 
              molecules                                       
              D. Peng, N. Middendorf, F. Weigend, M. Reiher   
              J. Chem. Phys. 138, 184105 (2013)               
                                         


 


              +--------------------------------------------------+
              |      general information about current run       |
              +--------------------------------------------------+

 
 B-P86 functional
 exchange:    LDA + Becke (B88)
 correlation: LDA (VWN) + Perdew (P86)
 A DFT calculation using the RI-J approximation will be carried out.
 Allocatable memory for RI due to $ricore (MB):        2000


              +--------------------------------------------------+
              | Atomic coordinate, charge and isotop information |
              +--------------------------------------------------+

                    atomic coordinates            atom    charge  isotop
         -5.59811024   -0.28776943    0.02010225    o      8.000     0
         -5.39722725   -0.23761436   -1.21025251    h      1.000     0
         -6.74589819   -1.72817980    0.15841711    h      1.000     0
 
       center of nuclear mass  :   -5.65109019   -0.36555512   -0.04099810
       center of nuclear charge:   -5.69280073   -0.42679496   -0.08910174

              +--------------------------------------------------+
              |               basis set information              |
              +--------------------------------------------------+

              we will work with the 1s 3p 5d 7f 9g ... basis set
              ...i.e. with spherical basis functions...

   type   atoms  prim   cont   basis
   ---------------------------------------------------------------------------
    o        1     24     14   def2-SVP   [3s2p1d|7s4p1d]
    h        2      7      5   def2-SVP   [2s1p|4s1p]
   ---------------------------------------------------------------------------
   total:    3     38     24
   ---------------------------------------------------------------------------

   total number of primitive shells          :   17
   total number of contracted shells         :   12
   total number of cartesian basis functions :   25
   total number of SCF-basis functions       :   24


 integral neglect threshold       :  0.13E-08
 integral storage threshold THIZE :  0.10E-04
 integral storage threshold THIME :         5

 RI-J AUXILIARY BASIS SET information:

              we will work with the 1s 3p 5d 7f 9g ... basis set
              ...i.e. with spherical basis functions...

   type   atoms  prim   cont   basis
   ---------------------------------------------------------------------------
    o        1     70     49   def2-SVP   [6s4p3d1f1g|12s5p4d2f1g]
    h        2     16     11   def2-SVP   [3s1p1d|5s2p1d]
   ---------------------------------------------------------------------------
   total:    3    102     71
   ---------------------------------------------------------------------------

   total number of primitive shells          :   32
   total number of contracted shells         :   25
   total number of cartesian basis functions :   85
   total number of SCF-basis functions       :   71


 symmetry group of the molecule :   c1 

 the group has the following generators :
   c1(z)

    1 symmetry operations found

 there are 1 real representations :   a   

 maximum number of shells which are related by symmetry :  1


    mo occupation :
   irrep   mo's   occupied
    a       24        5
 
 number of basis functions   :           24
 number of occupied orbitals :            5
 
  
           ------------------
           density functional
           ------------------
 B-P86 functional
 exchange:    LDA + Becke (B88)
 correlation: LDA (VWN) + Perdew (P86)
 iterations will be done with small grid
  
 spherical integration : Lebedev's spherical grid
 spherical gridsize    :           4
    i.e. gridpoints    :         434
 value for diffuse not defined
 radial integration    : Chebyshev 2nd kind (scaling 3)
 radial gridsize       :           6
 integration cells     :           3
 partition function    : becke
 partition sharpness   :           3
  

 biggest AO integral is expected to be     4.776656448
  
           ------------------------
               RI-J - INFORMATION
           ------------------------
 Contributions to RI integral batches: 
  neglected integral batches:           0
  direct contribution:                  0
  memory contribution:          78
 Memory core needed for (P|Q) and Cholesky      1 MByte
 Memory core minimum needed except of (P|Q)     1 MByte
 Total minimum memory core needed (sum)         1 MByte
  
 ****************************************
 Memory allocated for RI-J     1 MByte
 ****************************************
                                            

          ------------------------
          nuclear repulsion energy  :   11.1546359592    
          ------------------------

 
          -----------------
          -S,T+V- integrals
          -----------------

 1e-integrals will be neglected if expon. factor < 0.133678E-09
 
   Difference densities algorithm switched on.
   The maximal number of linear combinations of
   difference densities is          20 .

 DIIS switched on: error vector is FDS-SDF
 Max. Iterations for DIIS is     :   4
 DIIS matrix (see manual) 
    Scaling factor of diagonals  :  1.200
    threshold for scaling factor :  0.000

 scf convergence criterion : increment of total energy < .1000000D-05
                  and increment of one-electron energy < .1000000D-02


 <geterg> : there is no data group $energy 

  MOs are in ASCII format !


 automatic virtual orbital shift switched on 
      shift if e(lumo)-e(homo) < 0.10000000    


 reading orbital data $scfmo  from file mos
 orbital characterization : scfconv=6

 DSCF restart information will be dumped onto file mos


 Starting SCF iterations

          Overall gridpoints after grid construction =          7357

 ITERATION  ENERGY          1e-ENERGY        2e-ENERGY     NORM[dD(SAO)]  TOL
   1  -75.994430877895    -124.92012060     37.771053766    0.000D+00 0.133D-08
                            Exc = -9.38420563699     Coul =  47.1552594029    
                              N = 9.9999835556    
                            current damping = 0.700
 
          max. resid. norm for Fia-block=  2.342D-01 for orbital      3a         
          max. resid. fock norm         =  6.898D-01 for orbital      8a         

 ITERATION  ENERGY          1e-ENERGY        2e-ENERGY     NORM[dD(SAO)]  TOL
   2  -76.140240906735    -126.80116516     39.506288299    0.624D+00 0.869D-09
                            Exc = -9.62587490881     Coul =  49.1321632077    
                              N = 9.9999826018    
                            current damping = 0.650
 
          Norm of current diis error: 0.37204    
          max. resid. norm for Fia-block=  8.581D-02 for orbital      2a         
          max. resid. fock norm         =  3.520D-01 for orbital     24a         

 ITERATION  ENERGY          1e-ENERGY        2e-ENERGY     NORM[dD(SAO)]  TOL
   3  -76.154897657316    -125.89282998     38.583296361    0.250D+00 0.723D-09
                            Exc = -9.50265426978     Coul =  48.0859506303    
                              N = 9.9999819652    
                            current damping = 0.600
 
          Norm of current diis error: 0.14240    
          max. resid. norm for Fia-block=  2.307D-02 for orbital      3a         
          max. resid. fock norm         =  1.280D-01 for orbital     24a         

 ITERATION  ENERGY          1e-ENERGY        2e-ENERGY     NORM[dD(SAO)]  TOL
   4  -76.157313809098    -126.13700524     38.825055472    0.368D-01 0.655D-09
                            Exc = -9.53639712837     Coul =  48.3614526009    
                              N = 9.9999820185    
                            current damping = 0.650
 
          Norm of current diis error: 0.28694E-01
          max. resid. norm for Fia-block=  6.961D-03 for orbital      2a         
          max. resid. fock norm         =  4.606D-02 for orbital     24a         

 ITERATION  ENERGY          1e-ENERGY        2e-ENERGY     NORM[dD(SAO)]  TOL
   5  -76.157445419475    -126.16847700     38.856395625    0.154D-02 0.599D-09
                            Exc = -9.54097429489     Coul =  48.3973699198    
                              N = 9.9999820286    
                            current damping = 0.500
 
          Norm of current diis error: 0.98373E-02
          max. resid. norm for Fia-block=  2.674D-03 for orbital      2a         
          max. resid. fock norm         =  1.790D-02 for orbital     24a         
          mo-orthogonalization: Cholesky decomposition

 ITERATION  ENERGY          1e-ENERGY        2e-ENERGY     NORM[dD(SAO)]  TOL
   6  -76.157463552973    -126.17730652     38.865207012    0.147D-03 0.548D-09
                            Exc = -9.54229812635     Coul =  48.4075051381    
                              N = 9.9999820320    
                            current damping = 0.350
 
          Norm of current diis error: 0.31154E-02
          max. resid. norm for Fia-block=  8.676D-04 for orbital      2a         
          max. resid. fock norm         =  5.994D-03 for orbital     24a         

 ENERGY CONVERGED !

          Overall gridpoints after grid construction =         28275

 ITERATION  ENERGY          1e-ENERGY        2e-ENERGY     NORM[dD(SAO)]  TOL
   7  -76.157467974852    -126.17918033     38.867076396    0.115D-03 0.519D-09
                            Exc = -9.54259834030     Coul =  48.4096747360    
                              N = 10.000000009    
                            current damping = 0.200
 
          Norm of current diis error: 0.99151E-03
          max. resid. norm for Fia-block=  2.292D-04 for orbital      2a         
          max. resid. fock norm         =  1.532D-03 for orbital     24a         

 End of SCF iterations

   convergence criteria satisfied after    7 iterations


                  ------------------------------------------ 
                 |  total energy      =    -76.15746797485  |
                  ------------------------------------------ 
                 :  kinetic energy    =     76.74513770709  :
                 :  potential energy  =   -152.90260568195  :
                 :  virial theorem    =      2.00771650828  :
                 :  wavefunction norm =      1.00000000000  :
                  .......................................... 


 <geterg> : there is no data group $energy 


 <skperg> : $end is missing 


 orbitals $scfmo  will be written to file mos

    irrep                  1a          2a          3a          4a          5a   
 eigenvalues H        -18.73518    -0.99233    -0.50795    -0.32420    -0.24887
            eV        -509.8141    -27.0029    -13.8220     -8.8220     -6.7720
 occupation              2.0000      2.0000      2.0000      2.0000      2.0000 

    irrep                  6a          7a          8a          9a         10a   
 eigenvalues H          0.04492     0.15103     0.52051     0.83401     0.83985
            eV           1.2223      4.1099     14.1640     22.6947     22.8536
 
 
 
 
 ==============================================================================
                           electrostatic moments
 ==============================================================================

 reference point for electrostatic moments:    0.00000   0.00000   0.00000

 
              nuc           elec       ->  total
 ------------------------------------------------------------------------------
                          charge      
 ------------------------------------------------------------------------------
          10.000000     -10.000000       0.000000
 
 ------------------------------------------------------------------------------
                       dipole moment  
 ------------------------------------------------------------------------------
   x     -56.928007      56.611333      -0.316674
   y      -4.267950       3.781903      -0.486046
   z      -0.891017       0.399837      -0.491181
 
   | dipole moment | =     0.7601 a.u. =     1.9320 debye 
 
 ------------------------------------------------------------------------------
                     quadrupole moment
 ------------------------------------------------------------------------------
  xx     325.347910    -326.127681      -0.779771
  yy       3.705556      -7.436330      -3.730774
  zz       1.493040      -5.513634      -4.020594
  xy      25.828304     -22.246248       3.582056
  xz       4.563065      -2.081189       2.481877
  yz      -0.032478      -0.008152      -0.040630
 
     1/3  trace=      -2.843713
     anisotropy=       8.162422
 
 ==============================================================================
 


    ------------------------------------------------------------------------
         total  cpu-time :   0.20 seconds
         total wall-time :   0.20 seconds
    ------------------------------------------------------------------------

   ****  ridft : all done  ****


    2020-12-01 10:44:20.299 

--- PyADF *** new job *** PyADF ---
 operating system is UNIX !
 hostname is nitrogen02

 ridft (nitrogen02) : TURBOMOLE V7.1 ( 20661 ) 10 Jun 2016 at 08:56:48
 Copyright (C) 2016 TURBOMOLE GmbH, Karlsruhe


    2020-12-01 10:44:20.496 



                                  r i d f t

                        DFT program with RI approximation 
                                for coulomb part 




                                                 
                                 References:     
                                                 
          TURBOMOLE:                             
              R. Ahlrichs, M. Baer, M. Haeser, H. Horn, and
              C. Koelmel
              Electronic structure calculations on workstation
              computers: the program system TURBOMOLE
              Chem. Phys. Lett. 162: 165 (1989)
          Density Functional:                              
              O. Treutler and R. Ahlrichs                      
              Efficient Molecular Numerical Integration Schemes
              J. Chem. Phys. 102: 346 (1995)                   
          Parallel Version:                                
              Performance of parallel TURBOMOLE for Density    
              Functional Calculations                          
              M. v. Arnim and R. Ahlrichs                      
              J. Comp. Chem. 19: 1746 (1998)                   
          RI-J Method:                                     
              Auxiliary Basis Sets to approximate Coulomb      
              Potentials                                       
              Chem. Phys. Lett. 240: 283 (1995)                
              K. Eichkorn, O. Treutler, H. Oehm, M. Haeser     
              and R. Ahlrichs                                  
              Chem. Phys. Lett. 242: 652 (1995)                
                                                           
              Auxiliary Basis Sets for Main Row Atoms and their
              Use to approximate Coulomb Potentials            
              K. Eichkorn, F. Weigend, O. Treutler and         
              R. Ahlrichs                                      
              Theo. Chem. Acc. 97: 119 (1997)                   
                                                           
              Accurate Coulomb-fitting basis sets for H to Rn 
              F. Weigend                                        
              Phys. Chem. Chem. Phys. 8: 1057 (2006)            
                                                           
          Multipole accelerated RI-J (MARI-J):             
              Fast evaluation of the Coulomb potential for     
              electron densities using multipole accelerated   
              resolution of identity approximation             
              M. Sierka, A. Hogekamp and R. Ahlrichs           
              J. Chem. Phys. 118: 9136 (2003)                  
          RI-JK Method:                                     
              A fully direct RI-HF algorithm: Implementation,
              optimised auxiliary basis sets, demonstration of
              accuracy and efficiency                         
              F. Weigend                                      
              Phys. Chem. Chem. Phys. 4: 4285 (2002)           
          Two-component HF and DFT with spin-orbit coupling:  
              Self-consistent treatment of spin-orbit         
              interactions with efficient Hartree-Fock and    
              density functional methods                      
              M. K. Armbruster, F. Weigend, C. van Wüllen and 
              W. Klopper                                      
              Phys. Chem. Chem. Phys. 10: 1748 (2008)         
          Relativistic all-electron 2c calculations           
              An efficient implementation of two-component    
              relativistic exact-decoupling methods for large 
              molecules                                       
              D. Peng, N. Middendorf, F. Weigend, M. Reiher   
              J. Chem. Phys. 138, 184105 (2013)               
                                         


 


              +--------------------------------------------------+
              |      general information about current run       |
              +--------------------------------------------------+

 
 B-P86 functional
 exchange:    LDA + Becke (B88)
 correlation: LDA (VWN) + Perdew (P86)
 A DFT calculation using the RI-J approximation will be carried out.
 Allocatable memory for RI due to $ricore (MB):        2000


              +--------------------------------------------------+
              | Atomic coordinate, charge and isotop information |
              +--------------------------------------------------+

                    atomic coordinates            atom    charge  isotop
         -5.60217857   -0.28740132    0.05328246    o      8.000     0
         -5.29073976   -0.19385140   -1.75990619    h      1.000     0
         -6.78782673   -1.77778515    0.18148168    h      1.000     0
 
       center of nuclear mass  :   -5.65109115   -0.36555509   -0.04099380
       center of nuclear charge:   -5.68959950   -0.42708471   -0.11521649

              +--------------------------------------------------+
              |               basis set information              |
              +--------------------------------------------------+

              we will work with the 1s 3p 5d 7f 9g ... basis set
              ...i.e. with spherical basis functions...

   type   atoms  prim   cont   basis
   ---------------------------------------------------------------------------
    o        1     24     14   def2-SVP   [3s2p1d|7s4p1d]
    h        2      7      5   def2-SVP   [2s1p|4s1p]
   ---------------------------------------------------------------------------
   total:    3     38     24
   ---------------------------------------------------------------------------

   total number of primitive shells          :   17
   total number of contracted shells         :   12
   total number of cartesian basis functions :   25
   total number of SCF-basis functions       :   24


 integral neglect threshold       :  0.13E-08
 integral storage threshold THIZE :  0.10E-04
 integral storage threshold THIME :         5

 RI-J AUXILIARY BASIS SET information:

              we will work with the 1s 3p 5d 7f 9g ... basis set
              ...i.e. with spherical basis functions...

   type   atoms  prim   cont   basis
   ---------------------------------------------------------------------------
    o        1     70     49   def2-SVP   [6s4p3d1f1g|12s5p4d2f1g]
    h        2     16     11   def2-SVP   [3s1p1d|5s2p1d]
   ---------------------------------------------------------------------------
   total:    3    102     71
   ---------------------------------------------------------------------------

   total number of primitive shells          :   32
   total number of contracted shells         :   25
   total number of cartesian basis functions :   85
   total number of SCF-basis functions       :   71


 symmetry group of the molecule :   c1 

 the group has the following generators :
   c1(z)

    1 symmetry operations found

 there are 1 real representations :   a   

 maximum number of shells which are related by symmetry :  1


    mo occupation :
   irrep   mo's   occupied
    a       24        5
 
 number of basis functions   :           24
 number of occupied orbitals :            5
 
  
           ------------------
           density functional
           ------------------
 B-P86 functional
 exchange:    LDA + Becke (B88)
 correlation: LDA (VWN) + Perdew (P86)
 iterations will be done with small grid
  
 spherical integration : Lebedev's spherical grid
 spherical gridsize    :           4
    i.e. gridpoints    :         434
 value for diffuse not defined
 radial integration    : Chebyshev 2nd kind (scaling 3)
 radial gridsize       :           6
 integration cells     :           3
 partition function    : becke
 partition sharpness   :           3
  

 biggest AO integral is expected to be     4.776656448
  
           ------------------------
               RI-J - INFORMATION
           ------------------------
 Contributions to RI integral batches: 
  neglected integral batches:           0
  direct contribution:                  0
  memory contribution:          78
 Memory core needed for (P|Q) and Cholesky      1 MByte
 Memory core minimum needed except of (P|Q)     1 MByte
 Total minimum memory core needed (sum)         1 MByte
  
 ****************************************
 Memory allocated for RI-J     1 MByte
 ****************************************
                                            

          ------------------------
          nuclear repulsion energy  :   8.87659853373    
          ------------------------

 
          -----------------
          -S,T+V- integrals
          -----------------

 1e-integrals will be neglected if expon. factor < 0.133678E-09
 
   Difference densities algorithm switched on.
   The maximal number of linear combinations of
   difference densities is          20 .

 DIIS switched on: error vector is FDS-SDF
 Max. Iterations for DIIS is     :   4
 DIIS matrix (see manual) 
    Scaling factor of diagonals  :  1.200
    threshold for scaling factor :  0.000

 scf convergence criterion : increment of total energy < .1000000D-05
                  and increment of one-electron energy < .1000000D-02


 <geterg> : there is no data group $energy 

  MOs are in ASCII format !


 automatic virtual orbital shift switched on 
      shift if e(lumo)-e(homo) < 0.10000000    


 reading orbital data $scfmo  from file mos
 orbital characterization : scfconv=6

 DSCF restart information will be dumped onto file mos


 Starting SCF iterations

          Overall gridpoints after grid construction =          7369

 ITERATION  ENERGY          1e-ENERGY        2e-ENERGY     NORM[dD(SAO)]  TOL
   1  -76.319889673053    -122.80719620     37.610707997    0.000D+00 0.133D-08
                            Exc = -9.37987349543     Coul =  46.9905814920    
                              N = 9.9999838256    
                            current damping = 0.700
 
          max. resid. norm for Fia-block=  1.415D-01 for orbital      2a         
          max. resid. fock norm         =  5.043D-01 for orbital     24a         

 ITERATION  ENERGY          1e-ENERGY        2e-ENERGY     NORM[dD(SAO)]  TOL
   2  -76.354502251806    -122.36033448     37.129233698    0.297D+00 0.864D-09
                            Exc = -9.31151843538     Coul =  46.4407521330    
                              N = 9.9999827808    
                            current damping = 0.650
 
          Norm of current diis error: 0.20985    
          max. resid. norm for Fia-block=  6.468D-02 for orbital      2a         
          max. resid. fock norm         =  2.199D-01 for orbital     19a         

 ITERATION  ENERGY          1e-ENERGY        2e-ENERGY     NORM[dD(SAO)]  TOL
   3  -76.360425116969    -122.72792120     37.490897545    0.989D-01 0.676D-09
                            Exc = -9.35878394624     Coul =  46.8496814915    
                              N = 9.9999826979    
                            current damping = 0.600
 
          Norm of current diis error: 0.11383    
          max. resid. norm for Fia-block=  2.275D-02 for orbital      2a         
          max. resid. fock norm         =  8.695D-02 for orbital     19a         

 ITERATION  ENERGY          1e-ENERGY        2e-ENERGY     NORM[dD(SAO)]  TOL
   4  -76.362368346534    -122.48673294     37.247766065    0.318D-01 0.621D-09
                            Exc = -9.32653360804     Coul =  46.5742996727    
                              N = 9.9999826237    
                            current damping = 0.650
 
          Norm of current diis error: 0.34458E-01
          max. resid. norm for Fia-block=  8.991D-03 for orbital      2a         
          max. resid. fock norm         =  3.422D-02 for orbital     19a         

 ITERATION  ENERGY          1e-ENERGY        2e-ENERGY     NORM[dD(SAO)]  TOL
   5  -76.362543171733    -122.50983125     37.270689543    0.363D-02 0.581D-09
                            Exc = -9.32952585136     Coul =  46.6002153939    
                              N = 9.9999825836    
                            current damping = 0.700
 
          Norm of current diis error: 0.11999E-01
          max. resid. norm for Fia-block=  3.452D-03 for orbital      2a         
          max. resid. fock norm         =  1.360D-02 for orbital     19a         
          mo-orthogonalization: Cholesky decomposition

 ITERATION  ENERGY          1e-ENERGY        2e-ENERGY     NORM[dD(SAO)]  TOL
   6  -76.362567386009    -122.51111502     37.271949104    0.401D-03 0.552D-09
                            Exc = -9.32966889293     Coul =  46.6016179964    
                              N = 9.9999825730    
                            current damping = 0.550
 
          Norm of current diis error: 0.48825E-02
          max. resid. norm for Fia-block=  1.440D-03 for orbital      2a         
          max. resid. fock norm         =  5.646D-03 for orbital     19a         

 ITERATION  ENERGY          1e-ENERGY        2e-ENERGY     NORM[dD(SAO)]  TOL
   7  -76.362571681995    -122.51203521     37.272864995    0.519D-04 0.527D-09
                            Exc = -9.32978798268     Coul =  46.6026529773    
                              N = 9.9999825688    
                            current damping = 0.400
 
          Norm of current diis error: 0.17314E-02
          max. resid. norm for Fia-block=  4.880D-04 for orbital      2a         
          max. resid. fock norm         =  1.984D-03 for orbital     19a         

 ENERGY CONVERGED !

          Overall gridpoints after grid construction =         28309

 ITERATION  ENERGY          1e-ENERGY        2e-ENERGY     NORM[dD(SAO)]  TOL
   8  -76.362570225668    -122.51063161     37.271462846    0.177D-04 0.510D-09
                            Exc = -9.32960010012     Coul =  46.6010629466    
                              N = 10.000000077    
                            current damping = 0.450
 
          Norm of current diis error: 0.70431E-03
          max. resid. norm for Fia-block=  1.630D-04 for orbital      2a         
          max. resid. fock norm         =  5.879D-04 for orbital     19a         

 End of SCF iterations

   convergence criteria satisfied after    8 iterations


                  ------------------------------------------ 
                 |  total energy      =    -76.36257022567  |
                  ------------------------------------------ 
                 :  kinetic energy    =     75.73817829069  :
                 :  potential energy  =   -152.10074851636  :
                 :  virial theorem    =      1.99182332479  :
                 :  wavefunction norm =      1.00000000000  :
                  .......................................... 


 <geterg> : there is no data group $energy 


 <skperg> : $end is missing 


 orbitals $scfmo  will be written to file mos

    irrep                  1a          2a          3a          4a          5a   
 eigenvalues H        -18.76414    -0.88433    -0.44992    -0.31288    -0.23185
            eV        -510.6022    -24.0640    -12.2431     -8.5139     -6.3089
 occupation              2.0000      2.0000      2.0000      2.0000      2.0000 

    irrep                  6a          7a          8a          9a         10a   
 eigenvalues H          0.02413     0.10004     0.49641     0.55981     0.86133
            eV           0.6565      2.7223     13.5081     15.2333     23.4383
 
 
 
 
 ==============================================================================
                           electrostatic moments
 ==============================================================================

 reference point for electrostatic moments:    0.00000   0.00000   0.00000

 
              nuc           elec       ->  total
 ------------------------------------------------------------------------------
                          charge      
 ------------------------------------------------------------------------------
          10.000000     -10.000000      -0.000000
 
 ------------------------------------------------------------------------------
                       dipole moment  
 ------------------------------------------------------------------------------
   x     -56.895995      56.611411      -0.284584
   y      -4.270847       3.812834      -0.458013
   z      -1.152165       0.584012      -0.568152
 
   | dipole moment | =     0.7833 a.u. =     1.9910 debye 
 
 ------------------------------------------------------------------------------
                     quadrupole moment
 ------------------------------------------------------------------------------
  xx     325.141756    -326.520195      -1.378439
  yy       3.858895      -7.847229      -3.988334
  zz       3.152918      -6.949316      -3.796398
  xy      25.973503     -22.514448       3.459055
  xz       5.691357      -2.887217       2.804140
  yz      -0.103983       0.032915      -0.071068
 
     1/3  trace=      -3.054390
     anisotropy=       8.114642
 
 ==============================================================================
 


    ------------------------------------------------------------------------
         total  cpu-time :   0.21 seconds
         total wall-time :   0.22 seconds
    ------------------------------------------------------------------------

   ****  ridft : all done  ****


    2020-12-01 10:44:20.713 

--- PyADF *** new job *** PyADF ---
 operating system is UNIX !
 hostname is nitrogen02

 ridft (nitrogen02) : TURBOMOLE V7.1 ( 20661 ) 10 Jun 2016 at 08:56:48
 Copyright (C) 2016 TURBOMOLE GmbH, Karlsruhe


    2020-12-01 10:44:20.911 



                                  r i d f t

                        DFT program with RI approximation 
                                for coulomb part 




                                                 
                                 References:     
                                                 
          TURBOMOLE:                             
              R. Ahlrichs, M. Baer, M. Haeser, H. Horn, and
              C. Koelmel
              Electronic structure calculations on workstation
              computers: the program system TURBOMOLE
              Chem. Phys. Lett. 162: 165 (1989)
          Density Functional:                              
              O. Treutler and R. Ahlrichs                      
              Efficient Molecular Numerical Integration Schemes
              J. Chem. Phys. 102: 346 (1995)                   
          Parallel Version:                                
              Performance of parallel TURBOMOLE for Density    
              Functional Calculations                          
              M. v. Arnim and R. Ahlrichs                      
              J. Comp. Chem. 19: 1746 (1998)                   
          RI-J Method:                                     
              Auxiliary Basis Sets to approximate Coulomb      
              Potentials                                       
              Chem. Phys. Lett. 240: 283 (1995)                
              K. Eichkorn, O. Treutler, H. Oehm, M. Haeser     
              and R. Ahlrichs                                  
              Chem. Phys. Lett. 242: 652 (1995)                
                                                           
              Auxiliary Basis Sets for Main Row Atoms and their
              Use to approximate Coulomb Potentials            
              K. Eichkorn, F. Weigend, O. Treutler and         
              R. Ahlrichs                                      
              Theo. Chem. Acc. 97: 119 (1997)                   
                                                           
              Accurate Coulomb-fitting basis sets for H to Rn 
              F. Weigend                                        
              Phys. Chem. Chem. Phys. 8: 1057 (2006)            
                                                           
          Multipole accelerated RI-J (MARI-J):             
              Fast evaluation of the Coulomb potential for     
              electron densities using multipole accelerated   
              resolution of identity approximation             
              M. Sierka, A. Hogekamp and R. Ahlrichs           
              J. Chem. Phys. 118: 9136 (2003)                  
          RI-JK Method:                                     
              A fully direct RI-HF algorithm: Implementation,
              optimised auxiliary basis sets, demonstration of
              accuracy and efficiency                         
              F. Weigend                                      
              Phys. Chem. Chem. Phys. 4: 4285 (2002)           
          Two-component HF and DFT with spin-orbit coupling:  
              Self-consistent treatment of spin-orbit         
              interactions with efficient Hartree-Fock and    
              density functional methods                      
              M. K. Armbruster, F. Weigend, C. van Wüllen and 
              W. Klopper                                      
              Phys. Chem. Chem. Phys. 10: 1748 (2008)         
          Relativistic all-electron 2c calculations           
              An efficient implementation of two-component    
              relativistic exact-decoupling methods for large 
              molecules                                       
              D. Peng, N. Middendorf, F. Weigend, M. Reiher   
              J. Chem. Phys. 138, 184105 (2013)               
                                         


 


              +--------------------------------------------------+
              |      general information about current run       |
              +--------------------------------------------------+

 
 B-P86 functional
 exchange:    LDA + Becke (B88)
 correlation: LDA (VWN) + Perdew (P86)
 A DFT calculation using the RI-J approximation will be carried out.
 Allocatable memory for RI due to $ricore (MB):        2000


              +--------------------------------------------------+
              | Atomic coordinate, charge and isotop information |
              +--------------------------------------------------+

                    atomic coordinates            atom    charge  isotop
         -5.58808037   -0.26375765    0.08713233    o      8.000     0
         -5.57094636   -0.56261949   -1.82842187    h      1.000     0
         -6.73136147   -1.78425290   -0.28721644    h      1.000     0
 
       center of nuclear mass  :   -5.65108904   -0.36555187   -0.04098923
       center of nuclear charge:   -5.70069508   -0.44569336   -0.14185797

              +--------------------------------------------------+
              |               basis set information              |
              +--------------------------------------------------+

              we will work with the 1s 3p 5d 7f 9g ... basis set
              ...i.e. with spherical basis functions...

   type   atoms  prim   cont   basis
   ---------------------------------------------------------------------------
    o        1     24     14   def2-SVP   [3s2p1d|7s4p1d]
    h        2      7      5   def2-SVP   [2s1p|4s1p]
   ---------------------------------------------------------------------------
   total:    3     38     24
   ---------------------------------------------------------------------------

   total number of primitive shells          :   17
   total number of contracted shells         :   12
   total number of cartesian basis functions :   25
   total number of SCF-basis functions       :   24


 integral neglect threshold       :  0.13E-08
 integral storage threshold THIZE :  0.10E-04
 integral storage threshold THIME :         5

 RI-J AUXILIARY BASIS SET information:

              we will work with the 1s 3p 5d 7f 9g ... basis set
              ...i.e. with spherical basis functions...

   type   atoms  prim   cont   basis
   ---------------------------------------------------------------------------
    o        1     70     49   def2-SVP   [6s4p3d1f1g|12s5p4d2f1g]
    h        2     16     11   def2-SVP   [3s1p1d|5s2p1d]
   ---------------------------------------------------------------------------
   total:    3    102     71
   ---------------------------------------------------------------------------

   total number of primitive shells          :   32
   total number of contracted shells         :   25
   total number of cartesian basis functions :   85
   total number of SCF-basis functions       :   71


 symmetry group of the molecule :   c1 

 the group has the following generators :
   c1(z)

    1 symmetry operations found

 there are 1 real representations :   a   

 maximum number of shells which are related by symmetry :  1


    mo occupation :
   irrep   mo's   occupied
    a       24        5
 
 number of basis functions   :           24
 number of occupied orbitals :            5
 
  
           ------------------
           density functional
           ------------------
 B-P86 functional
 exchange:    LDA + Becke (B88)
 correlation: LDA (VWN) + Perdew (P86)
 iterations will be done with small grid
  
 spherical integration : Lebedev's spherical grid
 spherical gridsize    :           4
    i.e. gridpoints    :         434
 value for diffuse not defined
 radial integration    : Chebyshev 2nd kind (scaling 3)
 radial gridsize       :           6
 integration cells     :           3
 partition function    : becke
 partition sharpness   :           3
  

 biggest AO integral is expected to be     4.776656448
  
           ------------------------
               RI-J - INFORMATION
           ------------------------
 Contributions to RI integral batches: 
  neglected integral batches:           0
  direct contribution:                  0
  memory contribution:          78
 Memory core needed for (P|Q) and Cholesky      1 MByte
 Memory core minimum needed except of (P|Q)     1 MByte
 Total minimum memory core needed (sum)         1 MByte
  
 ****************************************
 Memory allocated for RI-J     1 MByte
 ****************************************
                                            

          ------------------------
          nuclear repulsion energy  :   8.69034441549    
          ------------------------

 
          -----------------
          -S,T+V- integrals
          -----------------

 1e-integrals will be neglected if expon. factor < 0.133678E-09
 
   Difference densities algorithm switched on.
   The maximal number of linear combinations of
   difference densities is          20 .

 DIIS switched on: error vector is FDS-SDF
 Max. Iterations for DIIS is     :   4
 DIIS matrix (see manual) 
    Scaling factor of diagonals  :  1.200
    threshold for scaling factor :  0.000

 scf convergence criterion : increment of total energy < .1000000D-05
                  and increment of one-electron energy < .1000000D-02


 <geterg> : there is no data group $energy 

  MOs are in ASCII format !


 automatic virtual orbital shift switched on 
      shift if e(lumo)-e(homo) < 0.10000000    


 reading orbital data $scfmo  from file mos
 orbital characterization : scfconv=6

 DSCF restart information will be dumped onto file mos


 Starting SCF iterations

          Overall gridpoints after grid construction =          7371

 ITERATION  ENERGY          1e-ENERGY        2e-ENERGY     NORM[dD(SAO)]  TOL
   1  -76.320930746199    -122.21026713     37.198991964    0.000D+00 0.133D-08
                            Exc = -9.32405390901     Coul =  46.5230458728    
                              N = 9.9999960375    
                            current damping = 0.700
 
          max. resid. norm for Fia-block=  6.909D-02 for orbital      4a         
          max. resid. fock norm         =  3.551D-01 for orbital     23a         

 ITERATION  ENERGY          1e-ENERGY        2e-ENERGY     NORM[dD(SAO)]  TOL
   2  -76.334604169524    -121.93114130     36.906192719    0.202D+00 0.846D-09
                            Exc = -9.28691392234     Coul =  46.1931066417    
                              N = 9.9999965424    
                            current damping = 0.650
 
          Norm of current diis error: 0.11233    
          max. resid. norm for Fia-block=  2.855D-02 for orbital      3a         
          max. resid. fock norm         =  1.711D-01 for orbital     14a         

 ITERATION  ENERGY          1e-ENERGY        2e-ENERGY     NORM[dD(SAO)]  TOL
   3  -76.336750339878    -122.18340083     37.156306070    0.641D-01 0.683D-09
                            Exc = -9.31939412891     Coul =  46.4757001989    
                              N = 9.9999970805    
                            current damping = 0.600
 
          Norm of current diis error: 0.70440E-01
          max. resid. norm for Fia-block=  1.325D-02 for orbital      4a         
          max. resid. fock norm         =  4.544D-02 for orbital     13a         

 ITERATION  ENERGY          1e-ENERGY        2e-ENERGY     NORM[dD(SAO)]  TOL
   4  -76.337538712548    -122.04149584     37.013612711    0.103D-01 0.623D-09
                            Exc = -9.30100061593     Coul =  46.3146133274    
                              N = 9.9999970655    
                            current damping = 0.650
 
          Norm of current diis error: 0.14236E-01
          max. resid. norm for Fia-block=  4.037D-03 for orbital      4a         
          max. resid. fock norm         =  1.671D-02 for orbital     13a         

 ITERATION  ENERGY          1e-ENERGY        2e-ENERGY     NORM[dD(SAO)]  TOL
   5  -76.337590987320    -122.04079443     37.012859024    0.938D-03 0.577D-09
                            Exc = -9.30087040810     Coul =  46.3137294316    
                              N = 9.9999971110    
                            current damping = 0.500
 
          Norm of current diis error: 0.56536E-02
          max. resid. norm for Fia-block=  1.650D-03 for orbital      4a         
          max. resid. fock norm         =  6.628D-03 for orbital     13a         
          mo-orthogonalization: Cholesky decomposition

 ITERATION  ENERGY          1e-ENERGY        2e-ENERGY     NORM[dD(SAO)]  TOL
   6  -76.337599700253    -122.03963132     37.011687204    0.102D-03 0.548D-09
                            Exc = -9.30072240801     Coul =  46.3124096123    
                              N = 9.9999971307    
                            current damping = 0.350
 
          Norm of current diis error: 0.18897E-02
          max. resid. norm for Fia-block=  5.476D-04 for orbital      4a         
          max. resid. fock norm         =  2.208D-03 for orbital     13a         

 ENERGY CONVERGED !

          Overall gridpoints after grid construction =         28343

 ITERATION  ENERGY          1e-ENERGY        2e-ENERGY     NORM[dD(SAO)]  TOL
   7  -76.337589045471    -122.03993743     37.012003964    0.898D-05 0.522D-09
                            Exc = -9.30074919548     Coul =  46.3127531597    
                              N = 10.000000145    
                            current damping = 0.400
 
          Norm of current diis error: 0.50629E-03
          max. resid. norm for Fia-block=  1.498D-04 for orbital      4a         
          max. resid. fock norm         =  5.851D-04 for orbital     13a         

 End of SCF iterations

   convergence criteria satisfied after    7 iterations


                  ------------------------------------------ 
                 |  total energy      =    -76.33758904547  |
                  ------------------------------------------ 
                 :  kinetic energy    =     75.73219384554  :
                 :  potential energy  =   -152.06978289101  :
                 :  virial theorem    =      1.99206950065  :
                 :  wavefunction norm =      1.00000000000  :
                  .......................................... 


 <geterg> : there is no data group $energy 


 <skperg> : $end is missing 


 orbitals $scfmo  will be written to file mos

    irrep                  1a          2a          3a          4a          5a   
 eigenvalues H        -18.78103    -0.89950    -0.38273    -0.37576    -0.23844
            eV        -511.0618    -24.4768    -10.4147    -10.2251     -6.4884
 occupation              2.0000      2.0000      2.0000      2.0000      2.0000 

    irrep                  6a          7a          8a          9a         10a   
 eigenvalues H         -0.00082     0.08506     0.45465     0.53496     0.85107
            eV          -0.0222      2.3145     12.3716     14.5570     23.1591
 
 
 
 
 ==============================================================================
                           electrostatic moments
 ==============================================================================

 reference point for electrostatic moments:    0.00000   0.00000   0.00000

 
              nuc           elec       ->  total
 ------------------------------------------------------------------------------
                          charge      
 ------------------------------------------------------------------------------
          10.000000     -10.000000       0.000000
 
 ------------------------------------------------------------------------------
                       dipole moment  
 ------------------------------------------------------------------------------
   x     -57.006951      56.680730      -0.326221
   y      -4.456934       3.929896      -0.527038
   z      -1.418580       0.755187      -0.663393
 
   | dipole moment | =     0.9079 a.u. =     2.3076 debye 
 
 ------------------------------------------------------------------------------
                     quadrupole moment
 ------------------------------------------------------------------------------
  xx     326.159809    -327.267422      -1.107613
  yy       4.056644      -8.083155      -4.026511
  zz       3.486356      -7.325182      -3.838826
  xy      26.935966     -23.187867       3.748099
  xz       8.224178      -4.391909       3.832269
  yz       1.357318      -0.769152       0.588166
 
     1/3  trace=      -2.990983
     anisotropy=       9.759547
 
 ==============================================================================
 


    ------------------------------------------------------------------------
         total  cpu-time :   0.20 seconds
         total wall-time :   0.20 seconds
    ------------------------------------------------------------------------

   ****  ridft : all done  ****


    2020-12-01 10:44:21.111 

--- PyADF *** new job *** PyADF ---
 operating system is UNIX !
 hostname is nitrogen02

 ridft (nitrogen02) : TURBOMOLE V7.1 ( 20661 ) 10 Jun 2016 at 08:56:48
 Copyright (C) 2016 TURBOMOLE GmbH, Karlsruhe


    2020-12-01 10:44:21.303 



                                  r i d f t

                        DFT program with RI approximation 
                                for coulomb part 




                                                 
                                 References:     
                                                 
          TURBOMOLE:                             
              R. Ahlrichs, M. Baer, M. Haeser, H. Horn, and
              C. Koelmel
              Electronic structure calculations on workstation
              computers: the program system TURBOMOLE
              Chem. Phys. Lett. 162: 165 (1989)
          Density Functional:                              
              O. Treutler and R. Ahlrichs                      
              Efficient Molecular Numerical Integration Schemes
              J. Chem. Phys. 102: 346 (1995)                   
          Parallel Version:                                
              Performance of parallel TURBOMOLE for Density    
              Functional Calculations                          
              M. v. Arnim and R. Ahlrichs                      
              J. Comp. Chem. 19: 1746 (1998)                   
          RI-J Method:                                     
              Auxiliary Basis Sets to approximate Coulomb      
              Potentials                                       
              Chem. Phys. Lett. 240: 283 (1995)                
              K. Eichkorn, O. Treutler, H. Oehm, M. Haeser     
              and R. Ahlrichs                                  
              Chem. Phys. Lett. 242: 652 (1995)                
                                                           
              Auxiliary Basis Sets for Main Row Atoms and their
              Use to approximate Coulomb Potentials            
              K. Eichkorn, F. Weigend, O. Treutler and         
              R. Ahlrichs                                      
              Theo. Chem. Acc. 97: 119 (1997)                   
                                                           
              Accurate Coulomb-fitting basis sets for H to Rn 
              F. Weigend                                        
              Phys. Chem. Chem. Phys. 8: 1057 (2006)            
                                                           
          Multipole accelerated RI-J (MARI-J):             
              Fast evaluation of the Coulomb potential for     
              electron densities using multipole accelerated   
              resolution of identity approximation             
              M. Sierka, A. Hogekamp and R. Ahlrichs           
              J. Chem. Phys. 118: 9136 (2003)                  
          RI-JK Method:                                     
              A fully direct RI-HF algorithm: Implementation,
              optimised auxiliary basis sets, demonstration of
              accuracy and efficiency                         
              F. Weigend                                      
              Phys. Chem. Chem. Phys. 4: 4285 (2002)           
          Two-component HF and DFT with spin-orbit coupling:  
              Self-consistent treatment of spin-orbit         
              interactions with efficient Hartree-Fock and    
              density functional methods                      
              M. K. Armbruster, F. Weigend, C. van Wüllen and 
              W. Klopper                                      
              Phys. Chem. Chem. Phys. 10: 1748 (2008)         
          Relativistic all-electron 2c calculations           
              An efficient implementation of two-component    
              relativistic exact-decoupling methods for large 
              molecules                                       
              D. Peng, N. Middendorf, F. Weigend, M. Reiher   
              J. Chem. Phys. 138, 184105 (2013)               
                                         


 


              +--------------------------------------------------+
              |      general information about current run       |
              +--------------------------------------------------+

 
 B-P86 functional
 exchange:    LDA + Becke (B88)
 correlation: LDA (VWN) + Perdew (P86)
 A DFT calculation using the RI-J approximation will be carried out.
 Allocatable memory for RI due to $ricore (MB):        2000


              +--------------------------------------------------+
              | Atomic coordinate, charge and isotop information |
              +--------------------------------------------------+

                    atomic coordinates            atom    charge  isotop
         -5.65080184   -0.33905365    0.11506858    o      8.000     0
         -5.13450234   -0.14751796   -2.67312477    h      1.000     0
         -6.17241027   -1.00433878    0.11409794    h      1.000     0
 
       center of nuclear mass  :   -5.65109888   -0.36556024   -0.04098696
       center of nuclear charge:   -5.65133274   -0.38642860   -0.16384782

              +--------------------------------------------------+
              |               basis set information              |
              +--------------------------------------------------+

              we will work with the 1s 3p 5d 7f 9g ... basis set
              ...i.e. with spherical basis functions...

   type   atoms  prim   cont   basis
   ---------------------------------------------------------------------------
    o        1     24     14   def2-SVP   [3s2p1d|7s4p1d]
    h        2      7      5   def2-SVP   [2s1p|4s1p]
   ---------------------------------------------------------------------------
   total:    3     38     24
   ---------------------------------------------------------------------------

   total number of primitive shells          :   17
   total number of contracted shells         :   12
   total number of cartesian basis functions :   25
   total number of SCF-basis functions       :   24


 integral neglect threshold       :  0.13E-08
 integral storage threshold THIZE :  0.10E-04
 integral storage threshold THIME :         5

 RI-J AUXILIARY BASIS SET information:

              we will work with the 1s 3p 5d 7f 9g ... basis set
              ...i.e. with spherical basis functions...

   type   atoms  prim   cont   basis
   ---------------------------------------------------------------------------
    o        1     70     49   def2-SVP   [6s4p3d1f1g|12s5p4d2f1g]
    h        2     16     11   def2-SVP   [3s1p1d|5s2p1d]
   ---------------------------------------------------------------------------
   total:    3    102     71
   ---------------------------------------------------------------------------

   total number of primitive shells          :   32
   total number of contracted shells         :   25
   total number of cartesian basis functions :   85
   total number of SCF-basis functions       :   71


 symmetry group of the molecule :   c1 

 the group has the following generators :
   c1(z)

    1 symmetry operations found

 there are 1 real representations :   a   

 maximum number of shells which are related by symmetry :  1


    mo occupation :
   irrep   mo's   occupied
    a       24        5
 
 number of basis functions   :           24
 number of occupied orbitals :            5
 
  
           ------------------
           density functional
           ------------------
 B-P86 functional
 exchange:    LDA + Becke (B88)
 correlation: LDA (VWN) + Perdew (P86)
 iterations will be done with small grid
  
 spherical integration : Lebedev's spherical grid
 spherical gridsize    :           4
    i.e. gridpoints    :         434
 value for diffuse not defined
 radial integration    : Chebyshev 2nd kind (scaling 3)
 radial gridsize       :           6
 integration cells     :           3
 partition function    : becke
 partition sharpness   :           3
  

 biggest AO integral is expected to be     4.776656448
  
           ------------------------
               RI-J - INFORMATION
           ------------------------
 Contributions to RI integral batches: 
  neglected integral batches:           0
  direct contribution:                  0
  memory contribution:          78
 Memory core needed for (P|Q) and Cholesky      1 MByte
 Memory core minimum needed except of (P|Q)     1 MByte
 Total minimum memory core needed (sum)         1 MByte
  
 ****************************************
 Memory allocated for RI-J     1 MByte
 ****************************************
                                            

          ------------------------
          nuclear repulsion energy  :   12.6010627089    
          ------------------------

 
          -----------------
          -S,T+V- integrals
          -----------------

 1e-integrals will be neglected if expon. factor < 0.133678E-09
 
   Difference densities algorithm switched on.
   The maximal number of linear combinations of
   difference densities is          20 .

 DIIS switched on: error vector is FDS-SDF
 Max. Iterations for DIIS is     :   4
 DIIS matrix (see manual) 
    Scaling factor of diagonals  :  1.200
    threshold for scaling factor :  0.000

 scf convergence criterion : increment of total energy < .1000000D-05
                  and increment of one-electron energy < .1000000D-02


 <geterg> : there is no data group $energy 

  MOs are in ASCII format !


 automatic virtual orbital shift switched on 
      shift if e(lumo)-e(homo) < 0.10000000    


 reading orbital data $scfmo  from file mos
 orbital characterization : scfconv=6

 DSCF restart information will be dumped onto file mos


 Starting SCF iterations

          Overall gridpoints after grid construction =          7368

 ITERATION  ENERGY          1e-ENERGY        2e-ENERGY     NORM[dD(SAO)]  TOL
   1  -74.844819520682    -125.27906144     37.833179210    0.000D+00 0.133D-08
                            Exc = -9.45488583936     Coul =  47.2880650498    
[...]
                 :  virial theorem    =      1.98954076408  :
                 :  wavefunction norm =      1.00000000000  :
                  .......................................... 


 <geterg> : there is no data group $energy 


 <skperg> : $end is missing 


 orbitals $scfmo  will be written to file mos

    irrep                  1a          2a          3a          4a          5a   
 eigenvalues H        -18.78393    -0.84731    -0.40321    -0.30322    -0.22467
            eV        -511.1408    -23.0568    -10.9721     -8.2512     -6.1136
 occupation              2.0000      2.0000      2.0000      2.0000      2.0000 

    irrep                  6a          7a          8a          9a         10a   
 eigenvalues H         -0.09210     0.07238     0.40505     0.54876     0.84669
            eV          -2.5062      1.9695     11.0219     14.9326     23.0397
 
 
 
 
 ==============================================================================
                           electrostatic moments
 ==============================================================================

 reference point for electrostatic moments:    0.00000   0.00000   0.00000

 
              nuc           elec       ->  total
 ------------------------------------------------------------------------------
                          charge      
 ------------------------------------------------------------------------------
          10.000000     -10.000000      -0.000000
 
 ------------------------------------------------------------------------------
                       dipole moment  
 ------------------------------------------------------------------------------
   x     -57.101166      56.813616      -0.287551
   y      -4.520372       4.063211      -0.457161
   z      -1.079831       0.539406      -0.540425
 
   | dipole moment | =     0.7640 a.u. =     1.9420 debye 
 
 ------------------------------------------------------------------------------
                     quadrupole moment
 ------------------------------------------------------------------------------
  xx     328.811588    -330.090806      -1.279219
  yy       6.067609      -9.822790      -3.755182
  zz       3.187273      -7.231872      -4.044599
  xy      29.114006     -25.238478       3.875528
  xz       4.889553      -2.355366       2.534187
  yz      -0.625351       0.405071      -0.220280
 
     1/3  trace=      -3.026333
     anisotropy=       8.449957
 
 ==============================================================================
 


    ------------------------------------------------------------------------
         total  cpu-time :   0.20 seconds
         total wall-time :   0.20 seconds
    ------------------------------------------------------------------------

   ****  ridft : all done  ****


    2020-12-01 10:44:46.816 

--- PyADF *** new job *** PyADF ---
 operating system is UNIX !
 hostname is nitrogen02

 ridft (nitrogen02) : TURBOMOLE V7.1 ( 20661 ) 10 Jun 2016 at 08:56:48
 Copyright (C) 2016 TURBOMOLE GmbH, Karlsruhe


    2020-12-01 10:44:47.003 



                                  r i d f t

                        DFT program with RI approximation 
                                for coulomb part 




                                                 
                                 References:     
                                                 
          TURBOMOLE:                             
              R. Ahlrichs, M. Baer, M. Haeser, H. Horn, and
              C. Koelmel
              Electronic structure calculations on workstation
              computers: the program system TURBOMOLE
              Chem. Phys. Lett. 162: 165 (1989)
          Density Functional:                              
              O. Treutler and R. Ahlrichs                      
              Efficient Molecular Numerical Integration Schemes
              J. Chem. Phys. 102: 346 (1995)                   
          Parallel Version:                                
              Performance of parallel TURBOMOLE for Density    
              Functional Calculations                          
              M. v. Arnim and R. Ahlrichs                      
              J. Comp. Chem. 19: 1746 (1998)                   
          RI-J Method:                                     
              Auxiliary Basis Sets to approximate Coulomb      
              Potentials                                       
              Chem. Phys. Lett. 240: 283 (1995)                
              K. Eichkorn, O. Treutler, H. Oehm, M. Haeser     
              and R. Ahlrichs                                  
              Chem. Phys. Lett. 242: 652 (1995)                
                                                           
              Auxiliary Basis Sets for Main Row Atoms and their
              Use to approximate Coulomb Potentials            
              K. Eichkorn, F. Weigend, O. Treutler and         
              R. Ahlrichs                                      
              Theo. Chem. Acc. 97: 119 (1997)                   
                                                           
              Accurate Coulomb-fitting basis sets for H to Rn 
              F. Weigend                                        
              Phys. Chem. Chem. Phys. 8: 1057 (2006)            
                                                           
          Multipole accelerated RI-J (MARI-J):             
              Fast evaluation of the Coulomb potential for     
              electron densities using multipole accelerated   
              resolution of identity approximation             
              M. Sierka, A. Hogekamp and R. Ahlrichs           
              J. Chem. Phys. 118: 9136 (2003)                  
          RI-JK Method:                                     
              A fully direct RI-HF algorithm: Implementation,
              optimised auxiliary basis sets, demonstration of
              accuracy and efficiency                         
              F. Weigend                                      
              Phys. Chem. Chem. Phys. 4: 4285 (2002)           
          Two-component HF and DFT with spin-orbit coupling:  
              Self-consistent treatment of spin-orbit         
              interactions with efficient Hartree-Fock and    
              density functional methods                      
              M. K. Armbruster, F. Weigend, C. van Wüllen and 
              W. Klopper                                      
              Phys. Chem. Chem. Phys. 10: 1748 (2008)         
          Relativistic all-electron 2c calculations           
              An efficient implementation of two-component    
              relativistic exact-decoupling methods for large 
              molecules                                       
              D. Peng, N. Middendorf, F. Weigend, M. Reiher   
              J. Chem. Phys. 138, 184105 (2013)               
                                         


 


              +--------------------------------------------------+
              |      general information about current run       |
              +--------------------------------------------------+

 
 B-P86 functional
 exchange:    LDA + Becke (B88)
 correlation: LDA (VWN) + Perdew (P86)
 A DFT calculation using the RI-J approximation will be carried out.
 Allocatable memory for RI due to $ricore (MB):        2000


              +--------------------------------------------------+
              | Atomic coordinate, charge and isotop information |
              +--------------------------------------------------+

                    atomic coordinates            atom    charge  isotop
         -5.55255353   -0.21938098    0.08162553    o      8.000     0
         -5.55291092   -0.54003049   -1.83085943    h      1.000     0
         -7.31321771   -2.51114889   -0.19736530    h      1.000     0
 
       center of nuclear mass  :   -5.65108383   -0.36554744   -0.04098896
       center of nuclear charge:   -5.72865569   -0.48062273   -0.13752205

              +--------------------------------------------------+
              |               basis set information              |
              +--------------------------------------------------+

              we will work with the 1s 3p 5d 7f 9g ... basis set
              ...i.e. with spherical basis functions...

   type   atoms  prim   cont   basis
   ---------------------------------------------------------------------------
    o        1     24     14   def2-SVP   [3s2p1d|7s4p1d]
    h        2      7      5   def2-SVP   [2s1p|4s1p]
   ---------------------------------------------------------------------------
   total:    3     38     24
   ---------------------------------------------------------------------------

   total number of primitive shells          :   17
   total number of contracted shells         :   12
   total number of cartesian basis functions :   25
   total number of SCF-basis functions       :   24


 integral neglect threshold       :  0.13E-08
 integral storage threshold THIZE :  0.10E-04
 integral storage threshold THIME :         5

 RI-J AUXILIARY BASIS SET information:

              we will work with the 1s 3p 5d 7f 9g ... basis set
              ...i.e. with spherical basis functions...

   type   atoms  prim   cont   basis
   ---------------------------------------------------------------------------
    o        1     70     49   def2-SVP   [6s4p3d1f1g|12s5p4d2f1g]
    h        2     16     11   def2-SVP   [3s1p1d|5s2p1d]
   ---------------------------------------------------------------------------
   total:    3    102     71
   ---------------------------------------------------------------------------

   total number of primitive shells          :   32
   total number of contracted shells         :   25
   total number of cartesian basis functions :   85
   total number of SCF-basis functions       :   71


 symmetry group of the molecule :   c1 

 the group has the following generators :
   c1(z)

    1 symmetry operations found

 there are 1 real representations :   a   

 maximum number of shells which are related by symmetry :  1


    mo occupation :
   irrep   mo's   occupied
    a       24        5
 
 number of basis functions   :           24
 number of occupied orbitals :            5
 
  
           ------------------
           density functional
           ------------------
 B-P86 functional
 exchange:    LDA + Becke (B88)
 correlation: LDA (VWN) + Perdew (P86)
 iterations will be done with small grid
  
 spherical integration : Lebedev's spherical grid
 spherical gridsize    :           4
    i.e. gridpoints    :         434
 value for diffuse not defined
 radial integration    : Chebyshev 2nd kind (scaling 3)
 radial gridsize       :           6
 integration cells     :           3
 partition function    : becke
 partition sharpness   :           3
  

 biggest AO integral is expected to be     4.776656448
  
           ------------------------
               RI-J - INFORMATION
           ------------------------
 Contributions to RI integral batches: 
  neglected integral batches:           0
  direct contribution:                  0
  memory contribution:          78
 Memory core needed for (P|Q) and Cholesky      1 MByte
 Memory core minimum needed except of (P|Q)     1 MByte
 Total minimum memory core needed (sum)         1 MByte
  
 ****************************************
 Memory allocated for RI-J     1 MByte
 ****************************************
                                            

          ------------------------
          nuclear repulsion energy  :   7.20268108841    
          ------------------------

 
          -----------------
          -S,T+V- integrals
          -----------------

 1e-integrals will be neglected if expon. factor < 0.133678E-09
 
   Difference densities algorithm switched on.
   The maximal number of linear combinations of
   difference densities is          20 .

 DIIS switched on: error vector is FDS-SDF
 Max. Iterations for DIIS is     :   4
 DIIS matrix (see manual) 
    Scaling factor of diagonals  :  1.200
    threshold for scaling factor :  0.000

 scf convergence criterion : increment of total energy < .1000000D-05
                  and increment of one-electron energy < .1000000D-02


 <geterg> : there is no data group $energy 

  MOs are in ASCII format !


 automatic virtual orbital shift switched on 
      shift if e(lumo)-e(homo) < 0.10000000    


 reading orbital data $scfmo  from file mos
 orbital characterization : scfconv=6

 DSCF restart information will be dumped onto file mos


 Starting SCF iterations

          Overall gridpoints after grid construction =          7382

 ITERATION  ENERGY          1e-ENERGY        2e-ENERGY     NORM[dD(SAO)]  TOL
   1  -76.248160097064    -119.37290702     35.922065835    0.000D+00 0.133D-08
                            Exc = -9.18873017433     Coul =  45.1107960091    
                              N = 10.000010786    
                            current damping = 0.700
 
          max. resid. norm for Fia-block=  6.075D-02 for orbital      3a         
          max. resid. fock norm         =  3.556D-01 for orbital     15a         

 ITERATION  ENERGY          1e-ENERGY        2e-ENERGY     NORM[dD(SAO)]  TOL
   2  -76.258274640195    -118.89953979     35.438584063    0.172D+00 0.848D-09
                            Exc = -9.13371297331     Coul =  44.5722970358    
                              N = 10.000011050    
                            current damping = 0.650
 
          Norm of current diis error: 0.14602    
          max. resid. norm for Fia-block=  3.040D-02 for orbital      4a         
          max. resid. fock norm         =  1.381D-01 for orbital     24a         

 ITERATION  ENERGY          1e-ENERGY        2e-ENERGY     NORM[dD(SAO)]  TOL
   3  -76.260354553404    -119.45741475     35.994379106    0.105D+00 0.730D-09
                            Exc = -9.19625957282     Coul =  45.1906386786    
                              N = 10.000010659    
                            current damping = 0.600
 
          Norm of current diis error: 0.11174    
          max. resid. norm for Fia-block=  1.478D-02 for orbital      4a         
          max. resid. fock norm         =  5.360D-02 for orbital     24a         

 ITERATION  ENERGY          1e-ENERGY        2e-ENERGY     NORM[dD(SAO)]  TOL
   4  -76.262253444133    -119.20026913     35.735334596    0.989D-02 0.652D-09
                            Exc = -9.16694539891     Coul =  44.9022799946    
                              N = 10.000010790    
                            current damping = 0.650
 
          Norm of current diis error: 0.14655E-01
          max. resid. norm for Fia-block=  4.547D-03 for orbital      4a         
          max. resid. fock norm         =  2.024D-02 for orbital     24a         

 ITERATION  ENERGY          1e-ENERGY        2e-ENERGY     NORM[dD(SAO)]  TOL
   5  -76.262307311134    -119.18327630     35.718287898    0.147D-02 0.599D-09
                            Exc = -9.16489309209     Coul =  44.8831809901    
                              N = 10.000010780    
                            current damping = 0.500
 
          Norm of current diis error: 0.52509E-02
          max. resid. norm for Fia-block=  1.781D-03 for orbital      4a         
          max. resid. fock norm         =  7.997D-03 for orbital     24a         
          mo-orthogonalization: Cholesky decomposition

 ITERATION  ENERGY          1e-ENERGY        2e-ENERGY     NORM[dD(SAO)]  TOL
   6  -76.262315320298    -119.17912054     35.714124135    0.175D-03 0.566D-09
                            Exc = -9.16442540896     Coul =  44.8785495442    
                              N = 10.000010779    
                            current damping = 0.350
 
          Norm of current diis error: 0.17392E-02
          max. resid. norm for Fia-block=  5.998D-04 for orbital      4a         
          max. resid. fock norm         =  2.668D-03 for orbital     24a         

 ENERGY CONVERGED !

          Overall gridpoints after grid construction =         28365

 ITERATION  ENERGY          1e-ENERGY        2e-ENERGY     NORM[dD(SAO)]  TOL
   7  -76.262301874006    -119.18106791     35.716084944    0.566D-04 0.540D-09
                            Exc = -9.16461050620     Coul =  44.8806954501    
                              N = 10.000000015    
                            current damping = 0.400
 
          Norm of current diis error: 0.81570E-03
          max. resid. norm for Fia-block=  1.648D-04 for orbital      4a         
          max. resid. fock norm         =  6.870D-04 for orbital     24a         

 End of SCF iterations

   convergence criteria satisfied after    7 iterations


                  ------------------------------------------ 
                 |  total energy      =    -76.26230187401  |
                  ------------------------------------------ 
                 :  kinetic energy    =     75.43752674923  :
                 :  potential energy  =   -151.69982862324  :
                 :  virial theorem    =      1.98918502190  :
                 :  wavefunction norm =      1.00000000000  :
                  .......................................... 


 <geterg> : there is no data group $energy 


 <skperg> : $end is missing 


 orbitals $scfmo  will be written to file mos

    irrep                  1a          2a          3a          4a          5a   
 eigenvalues H        -18.80456    -0.84502    -0.37053    -0.33848    -0.23203
            eV        -511.7023    -22.9943    -10.0826     -9.2105     -6.3138
 occupation              2.0000      2.0000      2.0000      2.0000      2.0000 

    irrep                  6a          7a          8a          9a         10a   
 eigenvalues H         -0.12585     0.04818     0.39700     0.51771     0.84050
            eV          -3.4245      1.3110     10.8031     14.0876     22.8715
 
 
 
 
 ==============================================================================
                           electrostatic moments
 ==============================================================================

 reference point for electrostatic moments:    0.00000   0.00000   0.00000

 
              nuc           elec       ->  total
 ------------------------------------------------------------------------------
                          charge      
 ------------------------------------------------------------------------------
          10.000000     -10.000000      -0.000000
 
 ------------------------------------------------------------------------------
                       dipole moment  
 ------------------------------------------------------------------------------
   x     -57.286557      56.977550      -0.309007
   y      -4.806227       4.301475      -0.504752
   z      -1.375220       0.713650      -0.661571
 
   | dipole moment | =     0.8877 a.u. =     2.2562 debye 
 
 ------------------------------------------------------------------------------
                     quadrupole moment
 ------------------------------------------------------------------------------
  xx     330.964779    -332.246248      -1.281469
  yy       6.982526     -10.815557      -3.833032
  zz       3.444301      -7.551411      -4.107109
  xy      31.108317     -27.070919       4.037398
  xz       7.984134      -4.218496       3.765638
  yz       1.341077      -0.817204       0.523872
 
     1/3  trace=      -3.073870
     anisotropy=       9.977478
 
 ==============================================================================
 


    ------------------------------------------------------------------------
         total  cpu-time :   0.20 seconds
         total wall-time :   0.20 seconds
    ------------------------------------------------------------------------

   ****  ridft : all done  ****


    2020-12-01 10:44:47.205 

