--- PyADF *** new job *** PyADF ---
 operating system is UNIX !
 hostname is nitrogen02

 ridft (nitrogen02) : TURBOMOLE V7.1 ( 20661 ) 10 Jun 2016 at 08:56:48
 Copyright (C) 2016 TURBOMOLE GmbH, Karlsruhe


    2020-12-01 10:44:38.428 



                                  r i d f t

                        DFT program with RI approximation 
                                for coulomb part 




                                                 
                                 References:     
                                                 
          TURBOMOLE:                             
              R. Ahlrichs, M. Baer, M. Haeser, H. Horn, and
              C. Koelmel
              Electronic structure calculations on workstation
              computers: the program system TURBOMOLE
              Chem. Phys. Lett. 162: 165 (1989)
          Density Functional:                              
              O. Treutler and R. Ahlrichs                      
              Efficient Molecular Numerical Integration Schemes
              J. Chem. Phys. 102: 346 (1995)                   
          Parallel Version:                                
              Performance of parallel TURBOMOLE for Density    
              Functional Calculations                          
              M. v. Arnim and R. Ahlrichs                      
              J. Comp. Chem. 19: 1746 (1998)                   
          RI-J Method:                                     
              Auxiliary Basis Sets to approximate Coulomb      
              Potentials                                       
              Chem. Phys. Lett. 240: 283 (1995)                
              K. Eichkorn, O. Treutler, H. Oehm, M. Haeser     
              and R. Ahlrichs                                  
              Chem. Phys. Lett. 242: 652 (1995)                
                                                           
              Auxiliary Basis Sets for Main Row Atoms and their
              Use to approximate Coulomb Potentials            
              K. Eichkorn, F. Weigend, O. Treutler and         
              R. Ahlrichs                                      
              Theo. Chem. Acc. 97: 119 (1997)                   
                                                           
              Accurate Coulomb-fitting basis sets for H to Rn 
              F. Weigend                                        
              Phys. Chem. Chem. Phys. 8: 1057 (2006)            
                                                           
          Multipole accelerated RI-J (MARI-J):             
              Fast evaluation of the Coulomb potential for     
              electron densities using multipole accelerated   
              resolution of identity approximation             
              M. Sierka, A. Hogekamp and R. Ahlrichs           
              J. Chem. Phys. 118: 9136 (2003)                  
          RI-JK Method:                                     
              A fully direct RI-HF algorithm: Implementation,
              optimised auxiliary basis sets, demonstration of
              accuracy and efficiency                         
              F. Weigend                                      
              Phys. Chem. Chem. Phys. 4: 4285 (2002)           
          Two-component HF and DFT with spin-orbit coupling:  
              Self-consistent treatment of spin-orbit         
              interactions with efficient Hartree-Fock and    
              density functional methods                      
              M. K. Armbruster, F. Weigend, C. van Wüllen and 
              W. Klopper                                      
              Phys. Chem. Chem. Phys. 10: 1748 (2008)         
          Relativistic all-electron 2c calculations           
              An efficient implementation of two-component    
              relativistic exact-decoupling methods for large 
              molecules                                       
              D. Peng, N. Middendorf, F. Weigend, M. Reiher   
              J. Chem. Phys. 138, 184105 (2013)               
                                         


 


              +--------------------------------------------------+
              |      general information about current run       |
              +--------------------------------------------------+

 
 B-P86 functional
 exchange:    LDA + Becke (B88)
 correlation: LDA (VWN) + Perdew (P86)
 A DFT calculation using the RI-J approximation will be carried out.
 Allocatable memory for RI due to $ricore (MB):        2000


              +--------------------------------------------------+
              | Atomic coordinate, charge and isotop information |
              +--------------------------------------------------+

                    atomic coordinates            atom    charge  isotop
         -5.60955341   -0.29237447    0.07974194    o      8.000     0
         -5.21005368   -0.16249077   -2.18712572    h      1.000     0
         -6.75147707   -1.73021645    0.18877176    h      1.000     0
 
       center of nuclear mass  :   -5.65109252   -0.36555558   -0.04099049
       center of nuclear charge:   -5.68379581   -0.42317029   -0.13604184

              +--------------------------------------------------+
              |               basis set information              |
              +--------------------------------------------------+

              we will work with the 1s 3p 5d 7f 9g ... basis set
              ...i.e. with spherical basis functions...

   type   atoms  prim   cont   basis
   ---------------------------------------------------------------------------
    o        1     24     14   def2-SVP   [3s2p1d|7s4p1d]
    h        2      7      5   def2-SVP   [2s1p|4s1p]
   ---------------------------------------------------------------------------
   total:    3     38     24
   ---------------------------------------------------------------------------

   total number of primitive shells          :   17
   total number of contracted shells         :   12
   total number of cartesian basis functions :   25
   total number of SCF-basis functions       :   24


 integral neglect threshold       :  0.13E-08
 integral storage threshold THIZE :  0.10E-04
 integral storage threshold THIME :         5

 RI-J AUXILIARY BASIS SET information:

              we will work with the 1s 3p 5d 7f 9g ... basis set
              ...i.e. with spherical basis functions...

   type   atoms  prim   cont   basis
   ---------------------------------------------------------------------------
    o        1     70     49   def2-SVP   [6s4p3d1f1g|12s5p4d2f1g]
    h        2     16     11   def2-SVP   [3s1p1d|5s2p1d]
   ---------------------------------------------------------------------------
   total:    3    102     71
   ---------------------------------------------------------------------------

   total number of primitive shells          :   32
   total number of contracted shells         :   25
   total number of cartesian basis functions :   85
   total number of SCF-basis functions       :   71


 symmetry group of the molecule :   c1 

 the group has the following generators :
   c1(z)

    1 symmetry operations found

 there are 1 real representations :   a   

 maximum number of shells which are related by symmetry :  1


    mo occupation :
   irrep   mo's   occupied
    a       24        5
 
 number of basis functions   :           24
 number of occupied orbitals :            5
 
  
           ------------------
           density functional
           ------------------
 B-P86 functional
 exchange:    LDA + Becke (B88)
 correlation: LDA (VWN) + Perdew (P86)
 iterations will be done with small grid
  
 spherical integration : Lebedev's spherical grid
 spherical gridsize    :           4
    i.e. gridpoints    :         434
 value for diffuse not defined
 radial integration    : Chebyshev 2nd kind (scaling 3)
 radial gridsize       :           6
 integration cells     :           3
 partition function    : becke
 partition sharpness   :           3
  

 biggest AO integral is expected to be     4.776656448
  
           ------------------------
               RI-J - INFORMATION
           ------------------------
 Contributions to RI integral batches: 
  neglected integral batches:           0
  direct contribution:                  0
  memory contribution:          78
 Memory core needed for (P|Q) and Cholesky      1 MByte
 Memory core minimum needed except of (P|Q)     1 MByte
 Total minimum memory core needed (sum)         1 MByte
  
 ****************************************
 Memory allocated for RI-J     1 MByte
 ****************************************
                                            

          ------------------------
          nuclear repulsion energy  :   8.12826527889    
          ------------------------

 
          -----------------
          -S,T+V- integrals
          -----------------

 1e-integrals will be neglected if expon. factor < 0.133678E-09
 
   Difference densities algorithm switched on.
   The maximal number of linear combinations of
   difference densities is          20 .

 DIIS switched on: error vector is FDS-SDF
 Max. Iterations for DIIS is     :   4
 DIIS matrix (see manual) 
    Scaling factor of diagonals  :  1.200
    threshold for scaling factor :  0.000

 scf convergence criterion : increment of total energy < .1000000D-05
                  and increment of one-electron energy < .1000000D-02


 <geterg> : there is no data group $energy 

  MOs are in ASCII format !


 automatic virtual orbital shift switched on 
      shift if e(lumo)-e(homo) < 0.10000000    


 reading orbital data $scfmo  from file mos
 orbital characterization : expanded
 mo provided and orthogonalized by Cholesky decomposition

 DSCF restart information will be dumped onto file mos


 Starting SCF iterations

          Overall gridpoints after grid construction =          7373

 ITERATION  ENERGY          1e-ENERGY        2e-ENERGY     NORM[dD(SAO)]  TOL
   1  -76.114698690159    -122.93966590     38.696701928    0.000D+00 0.133D-08
                            Exc = -9.47499510916     Coul =  48.1716970376    
                              N = 9.9999992366    
                            current damping = 0.700
 
          max. resid. norm for Fia-block=  2.745D-01 for orbital      4a         
          max. resid. fock norm         =  1.272D+00 for orbital     18a         

 ITERATION  ENERGY          1e-ENERGY        2e-ENERGY     NORM[dD(SAO)]  TOL
   2  -76.291620201854    -121.27135202     36.851466543    0.419D+00 0.879D-09
                            Exc = -9.23687822806     Coul =  46.0883447706    
                              N = 9.9999989448    
                            current damping = 0.650
 
          Norm of current diis error: 0.42543    
          max. resid. norm for Fia-block=  1.030D-01 for orbital      1a         
          max. resid. fock norm         =  1.109D-01 for orbital      6a         

 ITERATION  ENERGY          1e-ENERGY        2e-ENERGY     NORM[dD(SAO)]  TOL
   3  -76.321093850511    -121.37017805     36.920818917    0.193D+00 0.681D-09
                            Exc = -9.27076106548     Coul =  46.1915799829    
                              N = 9.9999980996    
                            current damping = 0.600
 
          Norm of current diis error: 0.20917    
          max. resid. norm for Fia-block=  4.063D-02 for orbital      1a         
          max. resid. fock norm         =  4.456D-02 for orbital      6a         

 ITERATION  ENERGY          1e-ENERGY        2e-ENERGY     NORM[dD(SAO)]  TOL
   4  -76.330024954437    -121.06858754     36.610297303    0.645D-01 0.576D-09
                            Exc = -9.24413379668     Coul =  45.8544310993    
                              N = 9.9999977862    
                            current damping = 0.650
 
          Norm of current diis error: 0.70427E-01
          max. resid. norm for Fia-block=  1.631D-02 for orbital      2a         
          max. resid. fock norm         =  2.019D-02 for orbital     18a         

 ITERATION  ENERGY          1e-ENERGY        2e-ENERGY     NORM[dD(SAO)]  TOL
   5  -76.331310640386    -121.12514841     36.665572490    0.181D-01 0.530D-09
                            Exc = -9.25694428780     Coul =  45.9225167776    
                              N = 9.9999976875    
                            current damping = 0.700
 
          Norm of current diis error: 0.28179E-01
          max. resid. norm for Fia-block=  6.128D-03 for orbital      4a         
          max. resid. fock norm         =  7.638D-03 for orbital      6a         
          mo-orthogonalization: Cholesky decomposition

 ITERATION  ENERGY          1e-ENERGY        2e-ENERGY     NORM[dD(SAO)]  TOL
   6  -76.331536687204    -121.09852938     36.638727416    0.215D-02 0.500D-09
                            Exc = -9.25555697051     Coul =  45.8942843866    
                              N = 9.9999976583    
                            current damping = 0.750
 
          Norm of current diis error: 0.11345E-01
          max. resid. norm for Fia-block=  2.525D-03 for orbital      2a         
          max. resid. fock norm         =  3.658D-03 for orbital     18a         

 ITERATION  ENERGY          1e-ENERGY        2e-ENERGY     NORM[dD(SAO)]  TOL
   7  -76.331572469645    -121.10259450     36.642756749    0.326D-03 0.481D-09
                            Exc = -9.25686429006     Coul =  45.8996210395    
                              N = 9.9999976455    
                            current damping = 0.800
 
          Norm of current diis error: 0.48546E-02
          max. resid. norm for Fia-block=  1.048D-03 for orbital      1a         
          max. resid. fock norm         =  1.449D-03 for orbital     18a         

 ITERATION  ENERGY          1e-ENERGY        2e-ENERGY     NORM[dD(SAO)]  TOL
   8  -76.331579332607    -121.10009865     36.640254039    0.906D-04 0.468D-09
                            Exc = -9.25687701889     Coul =  45.8971310582    
                              N = 9.9999976415    
                            current damping = 0.850
 
          Norm of current diis error: 0.21796E-02
          max. resid. norm for Fia-block=  5.119D-04 for orbital      2a         
          max. resid. fock norm         =  7.422D-04 for orbital     18a         

 ENERGY CONVERGED !

          Overall gridpoints after grid construction =         28342

 ITERATION  ENERGY          1e-ENERGY        2e-ENERGY     NORM[dD(SAO)]  TOL
   9  -76.331572364012    -121.10160968     36.641772040    0.304D-04 0.460D-09
                            Exc = -9.25720211602     Coul =  45.8989741562    
                              N = 10.000000036    
                            current damping = 0.900
 
          Norm of current diis error: 0.10238E-02
          max. resid. norm for Fia-block=  2.268D-04 for orbital      4a         
          max. resid. fock norm         =  2.865D-04 for orbital      6a         

 End of SCF iterations

   convergence criteria satisfied after    9 iterations


                  ------------------------------------------ 
                 |  total energy      =    -76.33157236401  |
                  ------------------------------------------ 
                 :  kinetic energy    =     75.56685551740  :
                 :  potential energy  =   -151.89842788141  :
                 :  virial theorem    =      1.98998164425  :
                 :  wavefunction norm =      1.00000000000  :
                  .......................................... 


 <geterg> : there is no data group $energy 


 <skperg> : $end is missing 


 orbitals $scfmo  will be written to file mos

    irrep                  1a          2a          3a          4a          5a   
 eigenvalues H        -18.77610    -0.85854    -0.42101    -0.31079    -0.22702
            eV        -510.9277    -23.3622    -11.4562     -8.4570     -6.1777
 occupation              2.0000      2.0000      2.0000      2.0000      2.0000 

    irrep                  6a          7a          8a          9a         10a   
 eigenvalues H         -0.02945     0.07855     0.42916     0.54726     0.85265
            eV          -0.8015      2.1374     11.6783     14.8919     23.2019
 
 
 
 
 ==============================================================================
                           electrostatic moments
 ==============================================================================

 reference point for electrostatic moments:    0.00000   0.00000   0.00000

 
              nuc           elec       ->  total
 ------------------------------------------------------------------------------
                          charge      
 ------------------------------------------------------------------------------
          10.000000     -10.000000       0.000000
 
 ------------------------------------------------------------------------------
                       dipole moment  
 ------------------------------------------------------------------------------
   x     -56.837958      56.566991      -0.270967
   y      -4.231703       3.786356      -0.445347
   z      -1.360418       0.764062      -0.596357
 
   | dipole moment | =     0.7921 a.u. =     2.0133 debye 
 
 ------------------------------------------------------------------------------
                     quadrupole moment
 ------------------------------------------------------------------------------
  xx     324.463818    -326.156711      -1.692893
  yy       3.703915      -7.888984      -4.185070
  zz       4.870024      -8.336586      -3.466562
  xy      25.648824     -22.288175       3.360648
  xz       6.542021      -3.665205       2.876816
  yz      -0.157744       0.067345      -0.090399
 
     1/3  trace=      -3.114842
     anisotropy=       7.979420
 
 ==============================================================================
 


    ------------------------------------------------------------------------
         total  cpu-time :   0.22 seconds
         total wall-time :   0.23 seconds
    ------------------------------------------------------------------------

   ****  ridft : all done  ****


    2020-12-01 10:44:38.657 

--- PyADF *** new job *** PyADF ---
 operating system is UNIX !
 hostname is nitrogen02

 ridft (nitrogen02) : TURBOMOLE V7.1 ( 20661 ) 10 Jun 2016 at 08:56:48
 Copyright (C) 2016 TURBOMOLE GmbH, Karlsruhe


    2020-12-01 10:44:38.900 



                                  r i d f t

                        DFT program with RI approximation 
                                for coulomb part 




                                                 
                                 References:     
                                                 
          TURBOMOLE:                             
              R. Ahlrichs, M. Baer, M. Haeser, H. Horn, and
              C. Koelmel
              Electronic structure calculations on workstation
              computers: the program system TURBOMOLE
              Chem. Phys. Lett. 162: 165 (1989)
          Density Functional:                              
              O. Treutler and R. Ahlrichs                      
              Efficient Molecular Numerical Integration Schemes
              J. Chem. Phys. 102: 346 (1995)                   
          Parallel Version:                                
              Performance of parallel TURBOMOLE for Density    
              Functional Calculations                          
              M. v. Arnim and R. Ahlrichs                      
              J. Comp. Chem. 19: 1746 (1998)                   
          RI-J Method:                                     
              Auxiliary Basis Sets to approximate Coulomb      
              Potentials                                       
              Chem. Phys. Lett. 240: 283 (1995)                
              K. Eichkorn, O. Treutler, H. Oehm, M. Haeser     
              and R. Ahlrichs                                  
              Chem. Phys. Lett. 242: 652 (1995)                
                                                           
              Auxiliary Basis Sets for Main Row Atoms and their
              Use to approximate Coulomb Potentials            
              K. Eichkorn, F. Weigend, O. Treutler and         
              R. Ahlrichs                                      
              Theo. Chem. Acc. 97: 119 (1997)                   
                                                           
              Accurate Coulomb-fitting basis sets for H to Rn 
              F. Weigend                                        
              Phys. Chem. Chem. Phys. 8: 1057 (2006)            
                                                           
          Multipole accelerated RI-J (MARI-J):             
              Fast evaluation of the Coulomb potential for     
              electron densities using multipole accelerated   
              resolution of identity approximation             
              M. Sierka, A. Hogekamp and R. Ahlrichs           
              J. Chem. Phys. 118: 9136 (2003)                  
          RI-JK Method:                                     
              A fully direct RI-HF algorithm: Implementation,
              optimised auxiliary basis sets, demonstration of
              accuracy and efficiency                         
              F. Weigend                                      
              Phys. Chem. Chem. Phys. 4: 4285 (2002)           
          Two-component HF and DFT with spin-orbit coupling:  
              Self-consistent treatment of spin-orbit         
              interactions with efficient Hartree-Fock and    
              density functional methods                      
              M. K. Armbruster, F. Weigend, C. van Wüllen and 
              W. Klopper                                      
              Phys. Chem. Chem. Phys. 10: 1748 (2008)         
          Relativistic all-electron 2c calculations           
              An efficient implementation of two-component    
              relativistic exact-decoupling methods for large 
              molecules                                       
              D. Peng, N. Middendorf, F. Weigend, M. Reiher   
              J. Chem. Phys. 138, 184105 (2013)               
                                         


 


              +--------------------------------------------------+
              |      general information about current run       |
              +--------------------------------------------------+

 
 B-P86 functional
 exchange:    LDA + Becke (B88)
 correlation: LDA (VWN) + Perdew (P86)
 A DFT calculation using the RI-J approximation will be carried out.
 Allocatable memory for RI due to $ricore (MB):        2000


              +--------------------------------------------------+
              | Atomic coordinate, charge and isotop information |
              +--------------------------------------------------+

                    atomic coordinates            atom    charge  isotop
         -5.64007387   -0.33473644    0.05915637    o      8.000     0
         -5.30997756   -0.21794633   -1.75730613    h      1.000     0
         -6.16718008   -1.00242942    0.08564046    h      1.000     0
 
       center of nuclear mass  :   -5.65109670   -0.36555981   -0.04099409
       center of nuclear charge:   -5.65977486   -0.38982672   -0.11984147

              +--------------------------------------------------+
              |               basis set information              |
              +--------------------------------------------------+

              we will work with the 1s 3p 5d 7f 9g ... basis set
              ...i.e. with spherical basis functions...

   type   atoms  prim   cont   basis
   ---------------------------------------------------------------------------
    o        1     24     14   def2-SVP   [3s2p1d|7s4p1d]
    h        2      7      5   def2-SVP   [2s1p|4s1p]
   ---------------------------------------------------------------------------
   total:    3     38     24
   ---------------------------------------------------------------------------

   total number of primitive shells          :   17
   total number of contracted shells         :   12
   total number of cartesian basis functions :   25
   total number of SCF-basis functions       :   24


 integral neglect threshold       :  0.13E-08
 integral storage threshold THIZE :  0.10E-04
 integral storage threshold THIME :         5

 RI-J AUXILIARY BASIS SET information:

              we will work with the 1s 3p 5d 7f 9g ... basis set
              ...i.e. with spherical basis functions...

   type   atoms  prim   cont   basis
   ---------------------------------------------------------------------------
    o        1     70     49   def2-SVP   [6s4p3d1f1g|12s5p4d2f1g]
    h        2     16     11   def2-SVP   [3s1p1d|5s2p1d]
   ---------------------------------------------------------------------------
   total:    3    102     71
   ---------------------------------------------------------------------------

   total number of primitive shells          :   32
   total number of contracted shells         :   25
   total number of cartesian basis functions :   85
   total number of SCF-basis functions       :   71


 symmetry group of the molecule :   c1 

 the group has the following generators :
   c1(z)

    1 symmetry operations found

 there are 1 real representations :   a   

 maximum number of shells which are related by symmetry :  1


    mo occupation :
   irrep   mo's   occupied
    a       24        5
 
 number of basis functions   :           24
 number of occupied orbitals :            5
 
  
           ------------------
           density functional
           ------------------
 B-P86 functional
 exchange:    LDA + Becke (B88)
 correlation: LDA (VWN) + Perdew (P86)
 iterations will be done with small grid
  
 spherical integration : Lebedev's spherical grid
 spherical gridsize    :           4
    i.e. gridpoints    :         434
 value for diffuse not defined
 radial integration    : Chebyshev 2nd kind (scaling 3)
 radial gridsize       :           6
 integration cells     :           3
 partition function    : becke
 partition sharpness   :           3
  

 biggest AO integral is expected to be     4.776656448
  
           ------------------------
               RI-J - INFORMATION
           ------------------------
 Contributions to RI integral batches: 
  neglected integral batches:           0
  direct contribution:                  0
  memory contribution:          78
 Memory core needed for (P|Q) and Cholesky      1 MByte
 Memory core minimum needed except of (P|Q)     1 MByte
 Total minimum memory core needed (sum)         1 MByte
  
 ****************************************
 Memory allocated for RI-J     1 MByte
 ****************************************
                                            

          ------------------------
          nuclear repulsion energy  :   14.1832421744    
          ------------------------

 
          -----------------
          -S,T+V- integrals
          -----------------

 1e-integrals will be neglected if expon. factor < 0.133678E-09
 
   Difference densities algorithm switched on.
   The maximal number of linear combinations of
   difference densities is          20 .

 DIIS switched on: error vector is FDS-SDF
 Max. Iterations for DIIS is     :   4
 DIIS matrix (see manual) 
    Scaling factor of diagonals  :  1.200
    threshold for scaling factor :  0.000

 scf convergence criterion : increment of total energy < .1000000D-05
                  and increment of one-electron energy < .1000000D-02


 <geterg> : there is no data group $energy 

  MOs are in ASCII format !


 automatic virtual orbital shift switched on 
      shift if e(lumo)-e(homo) < 0.10000000    


 reading orbital data $scfmo  from file mos
 orbital characterization : scfconv=6

 DSCF restart information will be dumped onto file mos


 Starting SCF iterations

          Overall gridpoints after grid construction =          7349

 ITERATION  ENERGY          1e-ENERGY        2e-ENERGY     NORM[dD(SAO)]  TOL
   1  -75.022746660833    -128.08542031     38.879431470    0.000D+00 0.133D-08
                            Exc = -9.53859251811     Coul =  48.4180239884    
                              N = 9.9999791361    
                            current damping = 0.700
 
          max. resid. norm for Fia-block=  2.941D-01 for orbital      2a         
          max. resid. fock norm         =  1.480D+00 for orbital     19a         

 ITERATION  ENERGY          1e-ENERGY        2e-ENERGY     NORM[dD(SAO)]  TOL
   2  -75.154401434170    -130.45933944     41.121695832    0.761D+00 0.837D-09
                            Exc = -9.86096224671     Coul =  50.9826580789    
                              N = 9.9999786913    
                            current damping = 0.650
 
          Norm of current diis error: 0.40978    
          max. resid. norm for Fia-block=  8.332D-02 for orbital      2a         
          max. resid. fock norm         =  5.134D-01 for orbital     24a         

 ITERATION  ENERGY          1e-ENERGY        2e-ENERGY     NORM[dD(SAO)]  TOL
   3  -75.172709024613    -129.52033148     40.164380277    0.272D+00 0.704D-09
                            Exc = -9.73459655782     Coul =  49.8989768348    
                              N = 9.9999760180    
                            current damping = 0.600
 
          Norm of current diis error: 0.12812    
          max. resid. norm for Fia-block=  2.382D-02 for orbital      2a         
          max. resid. fock norm         =  1.631D-01 for orbital     24a         

 ITERATION  ENERGY          1e-ENERGY        2e-ENERGY     NORM[dD(SAO)]  TOL
   4  -75.174517359725    -129.70179373     40.344034192    0.378D-01 0.643D-09
                            Exc = -9.75967112186     Coul =  50.1037053137    
                              N = 9.9999758522    
                            current damping = 0.650
 
          Norm of current diis error: 0.32034E-01
          max. resid. norm for Fia-block=  8.204D-03 for orbital      2a         
          max. resid. fock norm         =  5.575D-02 for orbital     24a         

 ITERATION  ENERGY          1e-ENERGY        2e-ENERGY     NORM[dD(SAO)]  TOL
   5  -75.174657348085    -129.72896692     40.371067398    0.329D-02 0.590D-09
                            Exc = -9.76356610103     Coul =  50.1346334988    
                              N = 9.9999757220    
                            current damping = 0.500
 
          Norm of current diis error: 0.11898E-01
          max. resid. norm for Fia-block=  3.205D-03 for orbital      2a         
          max. resid. fock norm         =  2.140D-02 for orbital     24a         
          mo-orthogonalization: Cholesky decomposition

 ITERATION  ENERGY          1e-ENERGY        2e-ENERGY     NORM[dD(SAO)]  TOL
   6  -75.174678737846    -129.73989646     40.381975551    0.385D-03 0.548D-09
                            Exc = -9.76517654476     Coul =  50.1471520955    
                              N = 9.9999756638    
                            current damping = 0.350
 
          Norm of current diis error: 0.36430E-02
          max. resid. norm for Fia-block=  9.947D-04 for orbital      2a         
          max. resid. fock norm         =  7.166D-03 for orbital     24a         

 ENERGY CONVERGED !

          Overall gridpoints after grid construction =         28249

 ITERATION  ENERGY          1e-ENERGY        2e-ENERGY     NORM[dD(SAO)]  TOL
   7  -75.174682111674    -129.74104545     40.383121163    0.174D-03 0.527D-09
                            Exc = -9.76536802175     Coul =  50.1484891847    
                              N = 9.9999998243    
                            current damping = 0.200
 
          Norm of current diis error: 0.12960E-02
          max. resid. norm for Fia-block=  2.754D-04 for orbital      2a         
          max. resid. fock norm         =  1.825D-03 for orbital     24a         

 End of SCF iterations

   convergence criteria satisfied after    7 iterations


                  ------------------------------------------ 
                 |  total energy      =    -75.17468211167  |
                  ------------------------------------------ 
                 :  kinetic energy    =     78.40718542587  :
                 :  potential energy  =   -153.58186753755  :
                 :  virial theorem    =      2.04299989336  :
                 :  wavefunction norm =      1.00000000000  :
                  .......................................... 


 <geterg> : there is no data group $energy 


 <skperg> : $end is missing 


 orbitals $scfmo  will be written to file mos

    irrep                  1a          2a          3a          4a          5a   
 eigenvalues H        -18.76696    -1.08992    -0.54024    -0.33585    -0.26349
            eV        -510.6791    -29.6585    -14.7007     -9.1390     -7.1701
 occupation              2.0000      2.0000      2.0000      2.0000      2.0000 

    irrep                  6a          7a          8a          9a         10a   
 eigenvalues H          0.04251     0.16459     0.51218     0.76124     0.78447
            eV           1.1568      4.4786     13.9371     20.7147     21.3466
 
 
 
 
 ==============================================================================
                           electrostatic moments
 ==============================================================================

 reference point for electrostatic moments:    0.00000   0.00000   0.00000

 
              nuc           elec       ->  total
 ------------------------------------------------------------------------------
                          charge      
 ------------------------------------------------------------------------------
          10.000000     -10.000000       0.000000
 
 ------------------------------------------------------------------------------
                       dipole moment  
 ------------------------------------------------------------------------------
   x     -56.597749      56.406235      -0.191513
   y      -3.898267       3.541951      -0.356317
   z      -1.198415       0.528885      -0.669530
 
   | dipole moment | =     0.7822 a.u. =     1.9883 debye 
 
 ------------------------------------------------------------------------------
                     quadrupole moment
 ------------------------------------------------------------------------------
  xx     320.713437    -322.977464      -2.264027
  yy       1.948753      -5.992506      -4.043753
  zz       3.123455      -6.460558      -3.337103
  xy      22.442959     -19.941032       2.501926
  xz       6.133926      -2.692318       3.441608
  yz       0.138736      -0.089258       0.049477
 
     1/3  trace=      -3.214961
     anisotropy=       7.531891
 
 ==============================================================================
 


    ------------------------------------------------------------------------
         total  cpu-time :   0.20 seconds
         total wall-time :   0.21 seconds
    ------------------------------------------------------------------------

   ****  ridft : all done  ****


    2020-12-01 10:44:39.107 

--- PyADF *** new job *** PyADF ---
 operating system is UNIX !
 hostname is nitrogen02

 ridft (nitrogen02) : TURBOMOLE V7.1 ( 20661 ) 10 Jun 2016 at 08:56:48
 Copyright (C) 2016 TURBOMOLE GmbH, Karlsruhe


    2020-12-01 10:44:39.288 



                                  r i d f t

                        DFT program with RI approximation 
                                for coulomb part 




                                                 
                                 References:     
                                                 
          TURBOMOLE:                             
              R. Ahlrichs, M. Baer, M. Haeser, H. Horn, and
              C. Koelmel
              Electronic structure calculations on workstation
              computers: the program system TURBOMOLE
              Chem. Phys. Lett. 162: 165 (1989)
          Density Functional:                              
              O. Treutler and R. Ahlrichs                      
              Efficient Molecular Numerical Integration Schemes
              J. Chem. Phys. 102: 346 (1995)                   
          Parallel Version:                                
              Performance of parallel TURBOMOLE for Density    
              Functional Calculations                          
              M. v. Arnim and R. Ahlrichs                      
              J. Comp. Chem. 19: 1746 (1998)                   
          RI-J Method:                                     
              Auxiliary Basis Sets to approximate Coulomb      
              Potentials                                       
              Chem. Phys. Lett. 240: 283 (1995)                
              K. Eichkorn, O. Treutler, H. Oehm, M. Haeser     
              and R. Ahlrichs                                  
              Chem. Phys. Lett. 242: 652 (1995)                
                                                           
              Auxiliary Basis Sets for Main Row Atoms and their
              Use to approximate Coulomb Potentials            
              K. Eichkorn, F. Weigend, O. Treutler and         
              R. Ahlrichs                                      
              Theo. Chem. Acc. 97: 119 (1997)                   
                                                           
              Accurate Coulomb-fitting basis sets for H to Rn 
              F. Weigend                                        
              Phys. Chem. Chem. Phys. 8: 1057 (2006)            
                                                           
          Multipole accelerated RI-J (MARI-J):             
              Fast evaluation of the Coulomb potential for     
              electron densities using multipole accelerated   
              resolution of identity approximation             
              M. Sierka, A. Hogekamp and R. Ahlrichs           
              J. Chem. Phys. 118: 9136 (2003)                  
          RI-JK Method:                                     
              A fully direct RI-HF algorithm: Implementation,
              optimised auxiliary basis sets, demonstration of
              accuracy and efficiency                         
              F. Weigend                                      
              Phys. Chem. Chem. Phys. 4: 4285 (2002)           
          Two-component HF and DFT with spin-orbit coupling:  
              Self-consistent treatment of spin-orbit         
              interactions with efficient Hartree-Fock and    
              density functional methods                      
              M. K. Armbruster, F. Weigend, C. van Wüllen and 
              W. Klopper                                      
              Phys. Chem. Chem. Phys. 10: 1748 (2008)         
          Relativistic all-electron 2c calculations           
              An efficient implementation of two-component    
              relativistic exact-decoupling methods for large 
              molecules                                       
              D. Peng, N. Middendorf, F. Weigend, M. Reiher   
              J. Chem. Phys. 138, 184105 (2013)               
                                         


 


              +--------------------------------------------------+
              |      general information about current run       |
              +--------------------------------------------------+

 
 B-P86 functional
 exchange:    LDA + Becke (B88)
 correlation: LDA (VWN) + Perdew (P86)
 A DFT calculation using the RI-J approximation will be carried out.
 Allocatable memory for RI due to $ricore (MB):        2000


              +--------------------------------------------------+
              | Atomic coordinate, charge and isotop information |
              +--------------------------------------------------+

                    atomic coordinates            atom    charge  isotop
         -5.58323092   -0.26373376    0.05034550    o      8.000     0
         -5.28112086   -0.18180394   -1.76120623    h      1.000     0
         -7.09815005   -2.16546301    0.22940229    h      1.000     0
 
       center of nuclear mass  :   -5.65108838   -0.36555273   -0.04099366
       center of nuclear charge:   -5.70451183   -0.44571371   -0.11290399

              +--------------------------------------------------+
              |               basis set information              |
              +--------------------------------------------------+

              we will work with the 1s 3p 5d 7f 9g ... basis set
              ...i.e. with spherical basis functions...

   type   atoms  prim   cont   basis
   ---------------------------------------------------------------------------
    o        1     24     14   def2-SVP   [3s2p1d|7s4p1d]
    h        2      7      5   def2-SVP   [2s1p|4s1p]
   ---------------------------------------------------------------------------
   total:    3     38     24
   ---------------------------------------------------------------------------

   total number of primitive shells          :   17
   total number of contracted shells         :   12
   total number of cartesian basis functions :   25
   total number of SCF-basis functions       :   24


 integral neglect threshold       :  0.13E-08
 integral storage threshold THIZE :  0.10E-04
 integral storage threshold THIME :         5

 RI-J AUXILIARY BASIS SET information:

              we will work with the 1s 3p 5d 7f 9g ... basis set
              ...i.e. with spherical basis functions...

   type   atoms  prim   cont   basis
   ---------------------------------------------------------------------------
    o        1     70     49   def2-SVP   [6s4p3d1f1g|12s5p4d2f1g]
    h        2     16     11   def2-SVP   [3s1p1d|5s2p1d]
   ---------------------------------------------------------------------------
   total:    3    102     71
   ---------------------------------------------------------------------------

   total number of primitive shells          :   32
   total number of contracted shells         :   25
   total number of cartesian basis functions :   85
   total number of SCF-basis functions       :   71


 symmetry group of the molecule :   c1 

 the group has the following generators :
   c1(z)

    1 symmetry operations found

 there are 1 real representations :   a   

 maximum number of shells which are related by symmetry :  1


    mo occupation :
   irrep   mo's   occupied
    a       24        5
 
 number of basis functions   :           24
 number of occupied orbitals :            5
 
  
           ------------------
           density functional
           ------------------
 B-P86 functional
 exchange:    LDA + Becke (B88)
 correlation: LDA (VWN) + Perdew (P86)
 iterations will be done with small grid
  
 spherical integration : Lebedev's spherical grid
 spherical gridsize    :           4
    i.e. gridpoints    :         434
 value for diffuse not defined
 radial integration    : Chebyshev 2nd kind (scaling 3)
 radial gridsize       :           6
 integration cells     :           3
 partition function    : becke
 partition sharpness   :           3
  

 biggest AO integral is expected to be     4.776656448
  
           ------------------------
               RI-J - INFORMATION
           ------------------------
 Contributions to RI integral batches: 
  neglected integral batches:           0
  direct contribution:                  0
  memory contribution:          78
 Memory core needed for (P|Q) and Cholesky      1 MByte
 Memory core minimum needed except of (P|Q)     1 MByte
 Total minimum memory core needed (sum)         1 MByte
  
 ****************************************
 Memory allocated for RI-J     1 MByte
 ****************************************
                                            

          ------------------------
          nuclear repulsion energy  :   7.93187925795    
          ------------------------

 
          -----------------
          -S,T+V- integrals
          -----------------

 1e-integrals will be neglected if expon. factor < 0.133678E-09
 
   Difference densities algorithm switched on.
   The maximal number of linear combinations of
   difference densities is          20 .

 DIIS switched on: error vector is FDS-SDF
 Max. Iterations for DIIS is     :   4
 DIIS matrix (see manual) 
    Scaling factor of diagonals  :  1.200
    threshold for scaling factor :  0.000

 scf convergence criterion : increment of total energy < .1000000D-05
                  and increment of one-electron energy < .1000000D-02


 <geterg> : there is no data group $energy 

  MOs are in ASCII format !


 automatic virtual orbital shift switched on 
      shift if e(lumo)-e(homo) < 0.10000000    


 reading orbital data $scfmo  from file mos
 orbital characterization : scfconv=6

 DSCF restart information will be dumped onto file mos


 Starting SCF iterations

          Overall gridpoints after grid construction =          7372

 ITERATION  ENERGY          1e-ENERGY        2e-ENERGY     NORM[dD(SAO)]  TOL
   1  -75.969633644660    -119.94261283     36.041099932    0.000D+00 0.133D-08
                            Exc = -9.25067370456     Coul =  45.2917736365    
                              N = 10.000007111    
                            current damping = 0.700
 
          max. resid. norm for Fia-block=  4.255D-01 for orbital      2a         
          max. resid. fock norm         =  1.236D+00 for orbital     24a         

 ITERATION  ENERGY          1e-ENERGY        2e-ENERGY     NORM[dD(SAO)]  TOL
   2  -76.209136542458    -120.59397649     36.452960687    0.713D+00 0.921D-09
                            Exc = -9.27130260397     Coul =  45.7242632909    
                              N = 10.000007834    
                            current damping = 0.650
 
          Norm of current diis error: 0.66455    
          max. resid. norm for Fia-block=  2.123D-01 for orbital      2a         
          max. resid. fock norm         =  1.130D+00 for orbital     24a         

 ITERATION  ENERGY          1e-ENERGY        2e-ENERGY     NORM[dD(SAO)]  TOL
   3  -76.287230200430    -120.43330773     36.214198268    0.160D+00 0.672D-09
                            Exc = -9.21890510926     Coul =  45.4331033769    
                              N = 10.000008552    
                            current damping = 0.600
 
          Norm of current diis error: 0.36788    
          max. resid. norm for Fia-block=  1.184D-01 for orbital      2a         
          max. resid. fock norm         =  4.519D-01 for orbital     13a         

 ITERATION  ENERGY          1e-ENERGY        2e-ENERGY     NORM[dD(SAO)]  TOL
   4  -76.310510268772    -120.93552172     36.693132191    0.115D+00 0.582D-09
                            Exc = -9.27295231010     Coul =  45.9660845011    
                              N = 10.000008784    
                            current damping = 0.650
 
          Norm of current diis error: 0.16046    
          max. resid. norm for Fia-block=  4.814D-02 for orbital      2a         
          max. resid. fock norm         =  1.490D-01 for orbital      9a         

 ITERATION  ENERGY          1e-ENERGY        2e-ENERGY     NORM[dD(SAO)]  TOL
   5  -76.315276168781    -120.52090634     36.273750915    0.445D-01 0.532D-09
                            Exc = -9.21693059171     Coul =  45.4906815065    
                              N = 10.000009087    
                            current damping = 0.700
 
          Norm of current diis error: 0.10989    
          max. resid. norm for Fia-block=  2.386D-02 for orbital      2a         
          max. resid. fock norm         =  6.748D-02 for orbital      8a         
          mo-orthogonalization: Cholesky decomposition

 ITERATION  ENERGY          1e-ENERGY        2e-ENERGY     NORM[dD(SAO)]  TOL
   6  -76.316947685763    -120.69001837     36.441191428    0.117D-01 0.512D-09
                            Exc = -9.23658606559     Coul =  45.6777774937    
                              N = 10.000009107    
                            current damping = 0.750
 
          Norm of current diis error: 0.30052E-01
          max. resid. norm for Fia-block=  9.475D-03 for orbital      2a         
          max. resid. fock norm         =  2.802D-02 for orbital      8a         

 ITERATION  ENERGY          1e-ENERGY        2e-ENERGY     NORM[dD(SAO)]  TOL
   7  -76.317117291690    -120.70514311     36.456146555    0.147D-02 0.497D-09
                            Exc = -9.23806689700     Coul =  45.6942134524    
                              N = 10.000009136    
                            current damping = 0.600
 
          Norm of current diis error: 0.12756E-01
          max. resid. norm for Fia-block=  4.074D-03 for orbital      2a         
          max. resid. fock norm         =  1.191D-02 for orbital      8a         

 ITERATION  ENERGY          1e-ENERGY        2e-ENERGY     NORM[dD(SAO)]  TOL
   8  -76.317150645037    -120.71098285     36.461952944    0.139D-03 0.483D-09
                            Exc = -9.23856605911     Coul =  45.7005190035    
                              N = 10.000009148    
                            current damping = 0.450
 
          Norm of current diis error: 0.45219E-02
          max. resid. norm for Fia-block=  1.491D-03 for orbital      2a         
          max. resid. fock norm         =  4.416D-03 for orbital      8a         

 ITERATION  ENERGY          1e-ENERGY        2e-ENERGY     NORM[dD(SAO)]  TOL
   9  -76.317155104553    -120.70827999     36.459245624    0.606D-04 0.470D-09
                            Exc = -9.23813791573     Coul =  45.6973835400    
                              N = 10.000009155    
                            current damping = 0.500
 
          Norm of current diis error: 0.21873E-02
          max. resid. norm for Fia-block=  5.388D-04 for orbital      2a         
          max. resid. fock norm         =  1.445D-03 for orbital      8a         

 ITERATION  ENERGY          1e-ENERGY        2e-ENERGY     NORM[dD(SAO)]  TOL
  10  -76.317155742226    -120.71406287     36.465027873    0.359D-04 0.466D-09
                            Exc = -9.23883460584     Coul =  45.7038624784    
                              N = 10.000009155    
                            current damping = 0.550
 
          Norm of current diis error: 0.86988E-03
          max. resid. norm for Fia-block=  1.517D-04 for orbital      2a         
          max. resid. fock norm         =  4.455D-04 for orbital      8a         
          mo-orthogonalization: Cholesky decomposition

 ENERGY CONVERGED !

          Overall gridpoints after grid construction =         28345

 ITERATION  ENERGY          1e-ENERGY        2e-ENERGY     NORM[dD(SAO)]  TOL
  11  -76.317145445026    -120.71174898     36.462724281    0.796D-05 0.459D-09
                            Exc = -9.23853266776     Coul =  45.7012569490    
                              N = 9.9999998973    
                            current damping = 0.600
 
          Norm of current diis error: 0.18770E-03
          max. resid. norm for Fia-block=  5.440D-05 for orbital      2a         
          max. resid. fock norm         =  1.630D-04 for orbital      8a         

 End of SCF iterations

   convergence criteria satisfied after   11 iterations


                  ------------------------------------------ 
                 |  total energy      =    -76.31714544503  |
                  ------------------------------------------ 
                 :  kinetic energy    =     75.53544415034  :
                 :  potential energy  =   -151.85258959537  :
                 :  virial theorem    =      1.98975719951  :
                 :  wavefunction norm =      1.00000000000  :
                  .......................................... 


 <geterg> : there is no data group $energy 


 <skperg> : $end is missing 


 orbitals $scfmo  will be written to file mos

    irrep                  1a          2a          3a          4a          5a   
 eigenvalues H        -18.77972    -0.85401    -0.41291    -0.31051    -0.22635
            eV        -511.0263    -23.2391    -11.2358     -8.4495     -6.1593
 occupation              2.0000      2.0000      2.0000      2.0000      2.0000 

    irrep                  6a          7a          8a          9a         10a   
 eigenvalues H         -0.05113     0.07518     0.41701     0.54748     0.85000
            eV          -1.3914      2.0459     11.3475     14.8979     23.1299
 
 
 
 
 ==============================================================================
                           electrostatic moments
 ==============================================================================

 reference point for electrostatic moments:    0.00000   0.00000   0.00000

 
              nuc           elec       ->  total
 ------------------------------------------------------------------------------
                          charge      
 ------------------------------------------------------------------------------
          10.000000     -10.000000       0.000000
 
 ------------------------------------------------------------------------------
                       dipole moment  
 ------------------------------------------------------------------------------
   x     -57.045118      56.748011      -0.297107
   y      -4.457137       3.984687      -0.472450
   z      -1.129040       0.569914      -0.559126
 
   | dipole moment | =     0.7900 a.u. =     2.0080 debye 
 
 ------------------------------------------------------------------------------
                     quadrupole moment
 ------------------------------------------------------------------------------
  xx     327.653712    -328.871537      -1.217825
  yy       5.278727      -9.113228      -3.834501
  zz       3.174750      -7.154207      -3.979457
  xy      28.110802     -24.291496       3.819306
  xz       5.424087      -2.701849       2.722237
  yz      -0.282790       0.171972      -0.110819
 
     1/3  trace=      -3.010594
     anisotropy=       8.560208
 
 ==============================================================================
 


    ------------------------------------------------------------------------
         total  cpu-time :   0.27 seconds
         total wall-time :   0.27 seconds
    ------------------------------------------------------------------------

   ****  ridft : all done  ****


    2020-12-01 10:44:39.557 

--- PyADF *** new job *** PyADF ---
 operating system is UNIX !
 hostname is nitrogen02

 ridft (nitrogen02) : TURBOMOLE V7.1 ( 20661 ) 10 Jun 2016 at 08:56:48
 Copyright (C) 2016 TURBOMOLE GmbH, Karlsruhe


    2020-12-01 10:44:39.735 



                                  r i d f t

                        DFT program with RI approximation 
                                for coulomb part 




                                                 
                                 References:     
                                                 
          TURBOMOLE:                             
              R. Ahlrichs, M. Baer, M. Haeser, H. Horn, and
              C. Koelmel
              Electronic structure calculations on workstation
              computers: the program system TURBOMOLE
              Chem. Phys. Lett. 162: 165 (1989)
          Density Functional:                              
              O. Treutler and R. Ahlrichs                      
              Efficient Molecular Numerical Integration Schemes
              J. Chem. Phys. 102: 346 (1995)                   
          Parallel Version:                                
              Performance of parallel TURBOMOLE for Density    
              Functional Calculations                          
              M. v. Arnim and R. Ahlrichs                      
              J. Comp. Chem. 19: 1746 (1998)                   
          RI-J Method:                                     
              Auxiliary Basis Sets to approximate Coulomb      
              Potentials                                       
              Chem. Phys. Lett. 240: 283 (1995)                
              K. Eichkorn, O. Treutler, H. Oehm, M. Haeser     
              and R. Ahlrichs                                  
              Chem. Phys. Lett. 242: 652 (1995)                
                                                           
              Auxiliary Basis Sets for Main Row Atoms and their
              Use to approximate Coulomb Potentials            
              K. Eichkorn, F. Weigend, O. Treutler and         
              R. Ahlrichs                                      
              Theo. Chem. Acc. 97: 119 (1997)                   
                                                           
              Accurate Coulomb-fitting basis sets for H to Rn 
              F. Weigend                                        
              Phys. Chem. Chem. Phys. 8: 1057 (2006)            
                                                           
          Multipole accelerated RI-J (MARI-J):             
              Fast evaluation of the Coulomb potential for     
              electron densities using multipole accelerated   
              resolution of identity approximation             
              M. Sierka, A. Hogekamp and R. Ahlrichs           
              J. Chem. Phys. 118: 9136 (2003)                  
          RI-JK Method:                                     
              A fully direct RI-HF algorithm: Implementation,
              optimised auxiliary basis sets, demonstration of
              accuracy and efficiency                         
              F. Weigend                                      
              Phys. Chem. Chem. Phys. 4: 4285 (2002)           
          Two-component HF and DFT with spin-orbit coupling:  
              Self-consistent treatment of spin-orbit         
              interactions with efficient Hartree-Fock and    
              density functional methods                      
              M. K. Armbruster, F. Weigend, C. van Wüllen and 
              W. Klopper                                      
              Phys. Chem. Chem. Phys. 10: 1748 (2008)         
          Relativistic all-electron 2c calculations           
              An efficient implementation of two-component    
              relativistic exact-decoupling methods for large 
              molecules                                       
              D. Peng, N. Middendorf, F. Weigend, M. Reiher   
              J. Chem. Phys. 138, 184105 (2013)               
                                         


 


              +--------------------------------------------------+
              |      general information about current run       |
              +--------------------------------------------------+

 
 B-P86 functional
 exchange:    LDA + Becke (B88)
 correlation: LDA (VWN) + Perdew (P86)
 A DFT calculation using the RI-J approximation will be carried out.
 Allocatable memory for RI due to $ricore (MB):        2000


              +--------------------------------------------------+
              | Atomic coordinate, charge and isotop information |
              +--------------------------------------------------+

                    atomic coordinates            atom    charge  isotop
         -5.60689940   -0.29416007    0.04886632    o      8.000     0
         -5.25208437   -0.14289132   -1.74993252    h      1.000     0
         -6.75156129   -1.72147863    0.24159275    h      1.000     0
 
       center of nuclear mass  :   -5.65109185   -0.36555588   -0.04099447
       center of nuclear charge:   -5.68588409   -0.42176505   -0.11174092

              +--------------------------------------------------+
              |               basis set information              |
              +--------------------------------------------------+

              we will work with the 1s 3p 5d 7f 9g ... basis set
              ...i.e. with spherical basis functions...

   type   atoms  prim   cont   basis
   ---------------------------------------------------------------------------
    o        1     24     14   def2-SVP   [3s2p1d|7s4p1d]
    h        2      7      5   def2-SVP   [2s1p|4s1p]
   ---------------------------------------------------------------------------
   total:    3     38     24
   ---------------------------------------------------------------------------

   total number of primitive shells          :   17
   total number of contracted shells         :   12
   total number of cartesian basis functions :   25
   total number of SCF-basis functions       :   24


 integral neglect threshold       :  0.13E-08
 integral storage threshold THIZE :  0.10E-04
 integral storage threshold THIME :         5

 RI-J AUXILIARY BASIS SET information:

              we will work with the 1s 3p 5d 7f 9g ... basis set
              ...i.e. with spherical basis functions...

   type   atoms  prim   cont   basis
   ---------------------------------------------------------------------------
    o        1     70     49   def2-SVP   [6s4p3d1f1g|12s5p4d2f1g]
    h        2     16     11   def2-SVP   [3s1p1d|5s2p1d]
   ---------------------------------------------------------------------------
   total:    3    102     71
   ---------------------------------------------------------------------------

   total number of primitive shells          :   32
   total number of contracted shells         :   25
   total number of cartesian basis functions :   85
   total number of SCF-basis functions       :   71


 symmetry group of the molecule :   c1 

 the group has the following generators :
   c1(z)

    1 symmetry operations found

 there are 1 real representations :   a   

 maximum number of shells which are related by symmetry :  1


    mo occupation :
   irrep   mo's   occupied
    a       24        5
 
 number of basis functions   :           24
 number of occupied orbitals :            5
 
  
           ------------------
           density functional
           ------------------
 B-P86 functional
 exchange:    LDA + Becke (B88)
 correlation: LDA (VWN) + Perdew (P86)
 iterations will be done with small grid
  
 spherical integration : Lebedev's spherical grid
 spherical gridsize    :           4
    i.e. gridpoints    :         434
 value for diffuse not defined
 radial integration    : Chebyshev 2nd kind (scaling 3)
 radial gridsize       :           6
 integration cells     :           3
 partition function    : becke
 partition sharpness   :           3
  

 biggest AO integral is expected to be     4.776656448
  
           ------------------------
               RI-J - INFORMATION
           ------------------------
 Contributions to RI integral batches: 
  neglected integral batches:           0
  direct contribution:                  0
  memory contribution:          78
 Memory core needed for (P|Q) and Cholesky      1 MByte
 Memory core minimum needed except of (P|Q)     1 MByte
 Total minimum memory core needed (sum)         1 MByte
  
 ****************************************
 Memory allocated for RI-J     1 MByte
 ****************************************
                                            

          ------------------------
          nuclear repulsion energy  :   9.03591437656    
          ------------------------

 
          -----------------
          -S,T+V- integrals
          -----------------

 1e-integrals will be neglected if expon. factor < 0.133678E-09
 
   Difference densities algorithm switched on.
   The maximal number of linear combinations of
   difference densities is          20 .

 DIIS switched on: error vector is FDS-SDF
 Max. Iterations for DIIS is     :   4
 DIIS matrix (see manual) 
    Scaling factor of diagonals  :  1.200
    threshold for scaling factor :  0.000

 scf convergence criterion : increment of total energy < .1000000D-05
                  and increment of one-electron energy < .1000000D-02


 <geterg> : there is no data group $energy 

  MOs are in ASCII format !


 automatic virtual orbital shift switched on 
      shift if e(lumo)-e(homo) < 0.10000000    


 reading orbital data $scfmo  from file mos
 orbital characterization : scfconv=6

 DSCF restart information will be dumped onto file mos


 Starting SCF iterations

          Overall gridpoints after grid construction =          7366

 ITERATION  ENERGY          1e-ENERGY        2e-ENERGY     NORM[dD(SAO)]  TOL
   1  -76.344163733170    -122.49909995     37.119021837    0.000D+00 0.133D-08
                            Exc = -9.30598072062     Coul =  46.4250025579    
                              N = 9.9999791574    
                            current damping = 0.700
 
          max. resid. norm for Fia-block=  7.631D-02 for orbital      3a         
          max. resid. fock norm         =  2.479D-01 for orbital     18a         

 ITERATION  ENERGY          1e-ENERGY        2e-ENERGY     NORM[dD(SAO)]  TOL
   2  -76.360409416574    -122.97099471     37.574670913    0.196D+00 0.849D-09
                            Exc = -9.36675382150     Coul =  46.9414247343    
                              N = 9.9999793021    
                            current damping = 0.650
 
          Norm of current diis error: 0.11634    
          max. resid. norm for Fia-block=  3.053D-02 for orbital      2a         
          max. resid. fock norm         =  1.039D-01 for orbital     23a         

 ITERATION  ENERGY          1e-ENERGY        2e-ENERGY     NORM[dD(SAO)]  TOL
   3  -76.362539589057    -122.68470345     37.286249485    0.745D-01 0.697D-09
                            Exc = -9.32905293348     Coul =  46.6153024181    
                              N = 9.9999791972    
                            current damping = 0.600
 
          Norm of current diis error: 0.57576E-01
          max. resid. norm for Fia-block=  1.106D-02 for orbital      3a         
          max. resid. fock norm         =  3.905D-02 for orbital     23a         

 ITERATION  ENERGY          1e-ENERGY        2e-ENERGY     NORM[dD(SAO)]  TOL
   4  -76.363085317318    -122.80214558     37.403145884    0.732D-02 0.637D-09
                            Exc = -9.34461135967     Coul =  46.7477572439    
                              N = 9.9999791702    
                            current damping = 0.650
 
          Norm of current diis error: 0.11079E-01
          max. resid. norm for Fia-block=  3.235D-03 for orbital      3a         
          max. resid. fock norm         =  1.561D-02 for orbital     24a         

 ITERATION  ENERGY          1e-ENERGY        2e-ENERGY     NORM[dD(SAO)]  TOL
   5  -76.363118360494    -122.81056423     37.411531497    0.995D-03 0.590D-09
                            Exc = -9.34576779430     Coul =  46.7572992914    
                              N = 9.9999791521    
                            current damping = 0.500
 
          Norm of current diis error: 0.41618E-02
          max. resid. norm for Fia-block=  1.259D-03 for orbital      2a         
          max. resid. fock norm         =  6.382D-03 for orbital     18a         
          mo-orthogonalization: Cholesky decomposition

 ITERATION  ENERGY          1e-ENERGY        2e-ENERGY     NORM[dD(SAO)]  TOL
   6  -76.363123483876    -122.81237423     37.413336373    0.126D-03 0.555D-09
                            Exc = -9.34602610748     Coul =  46.7593624800    
                              N = 9.9999791457    
                            current damping = 0.350
 
          Norm of current diis error: 0.13860E-02
          max. resid. norm for Fia-block=  4.268D-04 for orbital      2a         
          max. resid. fock norm         =  2.181D-03 for orbital     18a         

 ENERGY CONVERGED !

          Overall gridpoints after grid construction =         28306

 ITERATION  ENERGY          1e-ENERGY        2e-ENERGY     NORM[dD(SAO)]  TOL
   7  -76.363121652713    -122.81255901     37.413522981    0.279D-04 0.528D-09
                            Exc = -9.34605426166     Coul =  46.7595772428    
                              N = 9.9999999940    
                            current damping = 0.200
 
          Norm of current diis error: 0.39591E-03
          max. resid. norm for Fia-block=  1.145D-04 for orbital      3a         
          max. resid. fock norm         =  5.644D-04 for orbital     18a         

 End of SCF iterations

   convergence criteria satisfied after    7 iterations


                  ------------------------------------------ 
                 |  total energy      =    -76.36312165271  |
                  ------------------------------------------ 
                 :  kinetic energy    =     75.77772764675  :
                 :  potential energy  =   -152.14084929946  :
                 :  virial theorem    =      1.99233407444  :
                 :  wavefunction norm =      1.00000000000  :
                  .......................................... 


 <geterg> : there is no data group $energy 


 <skperg> : $end is missing 


 orbitals $scfmo  will be written to file mos

    irrep                  1a          2a          3a          4a          5a   
 eigenvalues H        -18.75928    -0.88779    -0.46316    -0.30464    -0.23180
            eV        -510.4701    -24.1582    -12.6033     -8.2896     -6.3077
 occupation              2.0000      2.0000      2.0000      2.0000      2.0000 

    irrep                  6a          7a          8a          9a         10a   
 eigenvalues H          0.03058     0.10711     0.52036     0.55752     0.85958
            eV           0.8321      2.9146     14.1598     15.1710     23.3904
 
 
 
 
 ==============================================================================
                           electrostatic moments
 ==============================================================================

 reference point for electrostatic moments:    0.00000   0.00000   0.00000

 
              nuc           elec       ->  total
 ------------------------------------------------------------------------------
                          charge      
 ------------------------------------------------------------------------------
          10.000000     -10.000000      -0.000000
 
 ------------------------------------------------------------------------------
                       dipole moment  
 ------------------------------------------------------------------------------
   x     -56.858841      56.586385      -0.272456
   y      -4.217650       3.777433      -0.440217
   z      -1.117409       0.563183      -0.554226
 
   | dipole moment | =     0.7584 a.u. =     1.9277 debye 
 
 ------------------------------------------------------------------------------
                     quadrupole moment
 ------------------------------------------------------------------------------
  xx     324.666537    -326.158153      -1.491616
  yy       3.676148      -7.683793      -4.007645
  zz       3.139734      -6.897074      -3.757340
  xy      25.567753     -22.229912       3.337841
  xz       5.367756      -2.708279       2.659478
  yz      -0.280843       0.122519      -0.158324
 
     1/3  trace=      -3.085533
     anisotropy=       7.776921
 
 ==============================================================================
 


    ------------------------------------------------------------------------
         total  cpu-time :   0.20 seconds
         total wall-time :   0.20 seconds
    ------------------------------------------------------------------------

   ****  ridft : all done  ****


    2020-12-01 10:44:39.936 

--- PyADF *** new job *** PyADF ---
 operating system is UNIX !
 hostname is nitrogen02

 ridft (nitrogen02) : TURBOMOLE V7.1 ( 20661 ) 10 Jun 2016 at 08:56:48
 Copyright (C) 2016 TURBOMOLE GmbH, Karlsruhe


    2020-12-01 10:44:40.106 



                                  r i d f t

                        DFT program with RI approximation 
                                for coulomb part 




                                                 
                                 References:     
                                                 
          TURBOMOLE:                             
              R. Ahlrichs, M. Baer, M. Haeser, H. Horn, and
              C. Koelmel
              Electronic structure calculations on workstation
              computers: the program system TURBOMOLE
              Chem. Phys. Lett. 162: 165 (1989)
          Density Functional:                              
              O. Treutler and R. Ahlrichs                      
              Efficient Molecular Numerical Integration Schemes
              J. Chem. Phys. 102: 346 (1995)                   
          Parallel Version:                                
              Performance of parallel TURBOMOLE for Density    
              Functional Calculations                          
              M. v. Arnim and R. Ahlrichs                      
              J. Comp. Chem. 19: 1746 (1998)                   
          RI-J Method:                                     
              Auxiliary Basis Sets to approximate Coulomb      
              Potentials                                       
              Chem. Phys. Lett. 240: 283 (1995)                
              K. Eichkorn, O. Treutler, H. Oehm, M. Haeser     
              and R. Ahlrichs                                  
              Chem. Phys. Lett. 242: 652 (1995)                
                                                           
              Auxiliary Basis Sets for Main Row Atoms and their
              Use to approximate Coulomb Potentials            
              K. Eichkorn, F. Weigend, O. Treutler and         
              R. Ahlrichs                                      
              Theo. Chem. Acc. 97: 119 (1997)                   
                                                           
              Accurate Coulomb-fitting basis sets for H to Rn 
              F. Weigend                                        
              Phys. Chem. Chem. Phys. 8: 1057 (2006)            
                                                           
          Multipole accelerated RI-J (MARI-J):             
              Fast evaluation of the Coulomb potential for     
              electron densities using multipole accelerated   
              resolution of identity approximation             
              M. Sierka, A. Hogekamp and R. Ahlrichs           
              J. Chem. Phys. 118: 9136 (2003)                  
          RI-JK Method:                                     
              A fully direct RI-HF algorithm: Implementation,
              optimised auxiliary basis sets, demonstration of
              accuracy and efficiency                         
              F. Weigend                                      
              Phys. Chem. Chem. Phys. 4: 4285 (2002)           
          Two-component HF and DFT with spin-orbit coupling:  
              Self-consistent treatment of spin-orbit         
              interactions with efficient Hartree-Fock and    
              density functional methods                      
              M. K. Armbruster, F. Weigend, C. van Wüllen and 
              W. Klopper                                      
              Phys. Chem. Chem. Phys. 10: 1748 (2008)         
          Relativistic all-electron 2c calculations           
              An efficient implementation of two-component    
              relativistic exact-decoupling methods for large 
              molecules                                       
              D. Peng, N. Middendorf, F. Weigend, M. Reiher   
              J. Chem. Phys. 138, 184105 (2013)               
                                         


 


              +--------------------------------------------------+
              |      general information about current run       |
              +--------------------------------------------------+

 
 B-P86 functional
 exchange:    LDA + Becke (B88)
 correlation: LDA (VWN) + Perdew (P86)
 A DFT calculation using the RI-J approximation will be carried out.
 Allocatable memory for RI due to $ricore (MB):        2000


              +--------------------------------------------------+
              | Atomic coordinate, charge and isotop information |
              +--------------------------------------------------+

                    atomic coordinates            atom    charge  isotop
         -5.63185419   -0.31538610    0.11213162    o      8.000     0
         -5.12488344   -0.13547050   -2.67442480    h      1.000     0
         -6.48273360   -1.39201664    0.16201855    h      1.000     0
 
       center of nuclear mass  :   -5.65109611   -0.36555788   -0.04098682
       center of nuclear charge:   -5.66624506   -0.40505759   -0.16153533

              +--------------------------------------------------+
              |               basis set information              |
              +--------------------------------------------------+

              we will work with the 1s 3p 5d 7f 9g ... basis set
              ...i.e. with spherical basis functions...

   type   atoms  prim   cont   basis
   ---------------------------------------------------------------------------
    o        1     24     14   def2-SVP   [3s2p1d|7s4p1d]
    h        2      7      5   def2-SVP   [2s1p|4s1p]
   ---------------------------------------------------------------------------
   total:    3     38     24
   ---------------------------------------------------------------------------

   total number of primitive shells          :   17
   total number of contracted shells         :   12
   total number of cartesian basis functions :   25
   total number of SCF-basis functions       :   24


 integral neglect threshold       :  0.13E-08
 integral storage threshold THIZE :  0.10E-04
 integral storage threshold THIME :         5

 RI-J AUXILIARY BASIS SET information:

              we will work with the 1s 3p 5d 7f 9g ... basis set
              ...i.e. with spherical basis functions...

   type   atoms  prim   cont   basis
   ---------------------------------------------------------------------------
    o        1     70     49   def2-SVP   [6s4p3d1f1g|12s5p4d2f1g]
    h        2     16     11   def2-SVP   [3s1p1d|5s2p1d]
   ---------------------------------------------------------------------------
   total:    3    102     71
   ---------------------------------------------------------------------------

   total number of primitive shells          :   32
   total number of contracted shells         :   25
   total number of cartesian basis functions :   85
   total number of SCF-basis functions       :   71


 symmetry group of the molecule :   c1 

 the group has the following generators :
   c1(z)

    1 symmetry operations found

 there are 1 real representations :   a   

 maximum number of shells which are related by symmetry :  1


    mo occupation :
   irrep   mo's   occupied
    a       24        5
 
 number of basis functions   :           24
 number of occupied orbitals :            5
 
  
           ------------------
           density functional
           ------------------
 B-P86 functional
 exchange:    LDA + Becke (B88)
 correlation: LDA (VWN) + Perdew (P86)
 iterations will be done with small grid
  
 spherical integration : Lebedev's spherical grid
 spherical gridsize    :           4
    i.e. gridpoints    :         434
[...]
                 :  virial theorem    =      1.98875273185  :
                 :  wavefunction norm =      1.00000000000  :
                  .......................................... 


 <geterg> : there is no data group $energy 


 <skperg> : $end is missing 


 orbitals $scfmo  will be written to file mos

    irrep                  1a          2a          3a          4a          5a   
 eigenvalues H        -18.76637    -0.82094    -0.41686    -0.25012    -0.21037
            eV        -510.6629    -22.3390    -11.3434     -6.8061     -5.7244
 occupation              2.0000      2.0000      2.0000      2.0000      2.0000 

    irrep                  6a          7a          8a          9a         10a   
 eigenvalues H         -0.11392     0.07066     0.38494     0.53852     0.85378
            eV          -3.1000      1.9228     10.4748     14.6539     23.2327
 
 
 
 
 ==============================================================================
                           electrostatic moments
 ==============================================================================

 reference point for electrostatic moments:    0.00000   0.00000   0.00000

 
              nuc           elec       ->  total
 ------------------------------------------------------------------------------
                          charge      
 ------------------------------------------------------------------------------
          10.000000     -10.000000       0.000000
 
 ------------------------------------------------------------------------------
                       dipole moment  
 ------------------------------------------------------------------------------
   x     -56.953056      56.712732      -0.240325
   y      -4.281088       3.916370      -0.364718
   z      -0.778661       0.430545      -0.348116
 
   | dipole moment | =     0.5585 a.u. =     1.4197 debye 
 
 ------------------------------------------------------------------------------
                     quadrupole moment
 ------------------------------------------------------------------------------
  xx     327.549215    -329.147371      -1.598156
  yy       5.980759      -9.660691      -3.679932
  zz       3.520627      -7.465592      -3.944964
  xy      28.000676     -24.420450       3.580226
  xz       1.796951      -0.921817       0.875134
  yz      -2.450830       1.457133      -0.993697
 
     1/3  trace=      -3.074351
     anisotropy=       6.976368
 
 ==============================================================================
 


    ------------------------------------------------------------------------
         total  cpu-time :   0.22 seconds
         total wall-time :   0.22 seconds
    ------------------------------------------------------------------------

   ****  ridft : all done  ****


    2020-12-01 10:45:05.161 

--- PyADF *** new job *** PyADF ---
 operating system is UNIX !
 hostname is nitrogen02

 ridft (nitrogen02) : TURBOMOLE V7.1 ( 20661 ) 10 Jun 2016 at 08:56:48
 Copyright (C) 2016 TURBOMOLE GmbH, Karlsruhe


    2020-12-01 10:45:05.334 



                                  r i d f t

                        DFT program with RI approximation 
                                for coulomb part 




                                                 
                                 References:     
                                                 
          TURBOMOLE:                             
              R. Ahlrichs, M. Baer, M. Haeser, H. Horn, and
              C. Koelmel
              Electronic structure calculations on workstation
              computers: the program system TURBOMOLE
              Chem. Phys. Lett. 162: 165 (1989)
          Density Functional:                              
              O. Treutler and R. Ahlrichs                      
              Efficient Molecular Numerical Integration Schemes
              J. Chem. Phys. 102: 346 (1995)                   
          Parallel Version:                                
              Performance of parallel TURBOMOLE for Density    
              Functional Calculations                          
              M. v. Arnim and R. Ahlrichs                      
              J. Comp. Chem. 19: 1746 (1998)                   
          RI-J Method:                                     
              Auxiliary Basis Sets to approximate Coulomb      
              Potentials                                       
              Chem. Phys. Lett. 240: 283 (1995)                
              K. Eichkorn, O. Treutler, H. Oehm, M. Haeser     
              and R. Ahlrichs                                  
              Chem. Phys. Lett. 242: 652 (1995)                
                                                           
              Auxiliary Basis Sets for Main Row Atoms and their
              Use to approximate Coulomb Potentials            
              K. Eichkorn, F. Weigend, O. Treutler and         
              R. Ahlrichs                                      
              Theo. Chem. Acc. 97: 119 (1997)                   
                                                           
              Accurate Coulomb-fitting basis sets for H to Rn 
              F. Weigend                                        
              Phys. Chem. Chem. Phys. 8: 1057 (2006)            
                                                           
          Multipole accelerated RI-J (MARI-J):             
              Fast evaluation of the Coulomb potential for     
              electron densities using multipole accelerated   
              resolution of identity approximation             
              M. Sierka, A. Hogekamp and R. Ahlrichs           
              J. Chem. Phys. 118: 9136 (2003)                  
          RI-JK Method:                                     
              A fully direct RI-HF algorithm: Implementation,
              optimised auxiliary basis sets, demonstration of
              accuracy and efficiency                         
              F. Weigend                                      
              Phys. Chem. Chem. Phys. 4: 4285 (2002)           
          Two-component HF and DFT with spin-orbit coupling:  
              Self-consistent treatment of spin-orbit         
              interactions with efficient Hartree-Fock and    
              density functional methods                      
              M. K. Armbruster, F. Weigend, C. van Wüllen and 
              W. Klopper                                      
              Phys. Chem. Chem. Phys. 10: 1748 (2008)         
          Relativistic all-electron 2c calculations           
              An efficient implementation of two-component    
              relativistic exact-decoupling methods for large 
              molecules                                       
              D. Peng, N. Middendorf, F. Weigend, M. Reiher   
              J. Chem. Phys. 138, 184105 (2013)               
                                         


 


              +--------------------------------------------------+
              |      general information about current run       |
              +--------------------------------------------------+

 
 B-P86 functional
 exchange:    LDA + Becke (B88)
 correlation: LDA (VWN) + Perdew (P86)
 A DFT calculation using the RI-J approximation will be carried out.
 Allocatable memory for RI due to $ricore (MB):        2000


              +--------------------------------------------------+
              | Atomic coordinate, charge and isotop information |
              +--------------------------------------------------+

                    atomic coordinates            atom    charge  isotop
         -5.57137256   -0.24978340    0.04335953    o      8.000     0
         -5.23404893   -0.12030232   -1.75237008    h      1.000     0
         -7.33341753   -2.44837462    0.33144389    h      1.000     0
 
       center of nuclear mass  :   -5.65108665   -0.36555146   -0.04099420
       center of nuclear charge:   -5.71384469   -0.45669441   -0.10740499

              +--------------------------------------------------+
              |               basis set information              |
              +--------------------------------------------------+

              we will work with the 1s 3p 5d 7f 9g ... basis set
              ...i.e. with spherical basis functions...

   type   atoms  prim   cont   basis
   ---------------------------------------------------------------------------
    o        1     24     14   def2-SVP   [3s2p1d|7s4p1d]
    h        2      7      5   def2-SVP   [2s1p|4s1p]
   ---------------------------------------------------------------------------
   total:    3     38     24
   ---------------------------------------------------------------------------

   total number of primitive shells          :   17
   total number of contracted shells         :   12
   total number of cartesian basis functions :   25
   total number of SCF-basis functions       :   24


 integral neglect threshold       :  0.13E-08
 integral storage threshold THIZE :  0.10E-04
 integral storage threshold THIME :         5

 RI-J AUXILIARY BASIS SET information:

              we will work with the 1s 3p 5d 7f 9g ... basis set
              ...i.e. with spherical basis functions...

   type   atoms  prim   cont   basis
   ---------------------------------------------------------------------------
    o        1     70     49   def2-SVP   [6s4p3d1f1g|12s5p4d2f1g]
    h        2     16     11   def2-SVP   [3s1p1d|5s2p1d]
   ---------------------------------------------------------------------------
   total:    3    102     71
   ---------------------------------------------------------------------------

   total number of primitive shells          :   32
   total number of contracted shells         :   25
   total number of cartesian basis functions :   85
   total number of SCF-basis functions       :   71


 symmetry group of the molecule :   c1 

 the group has the following generators :
   c1(z)

    1 symmetry operations found

 there are 1 real representations :   a   

 maximum number of shells which are related by symmetry :  1


    mo occupation :
   irrep   mo's   occupied
    a       24        5
 
 number of basis functions   :           24
 number of occupied orbitals :            5
 
  
           ------------------
           density functional
           ------------------
 B-P86 functional
 exchange:    LDA + Becke (B88)
 correlation: LDA (VWN) + Perdew (P86)
 iterations will be done with small grid
  
 spherical integration : Lebedev's spherical grid
 spherical gridsize    :           4
    i.e. gridpoints    :         434
 value for diffuse not defined
 radial integration    : Chebyshev 2nd kind (scaling 3)
 radial gridsize       :           6
 integration cells     :           3
 partition function    : becke
 partition sharpness   :           3
  

 biggest AO integral is expected to be     4.776656448
  
           ------------------------
               RI-J - INFORMATION
           ------------------------
 Contributions to RI integral batches: 
  neglected integral batches:           0
  direct contribution:                  0
  memory contribution:          78
 Memory core needed for (P|Q) and Cholesky      1 MByte
 Memory core minimum needed except of (P|Q)     1 MByte
 Total minimum memory core needed (sum)         1 MByte
  
 ****************************************
 Memory allocated for RI-J     1 MByte
 ****************************************
                                            

          ------------------------
          nuclear repulsion energy  :   7.45775439656    
          ------------------------

 
          -----------------
          -S,T+V- integrals
          -----------------

 1e-integrals will be neglected if expon. factor < 0.133678E-09
 
   Difference densities algorithm switched on.
   The maximal number of linear combinations of
   difference densities is          20 .

 DIIS switched on: error vector is FDS-SDF
 Max. Iterations for DIIS is     :   4
 DIIS matrix (see manual) 
    Scaling factor of diagonals  :  1.200
    threshold for scaling factor :  0.000

 scf convergence criterion : increment of total energy < .1000000D-05
                  and increment of one-electron energy < .1000000D-02


 <geterg> : there is no data group $energy 

  MOs are in ASCII format !


 automatic virtual orbital shift switched on 
      shift if e(lumo)-e(homo) < 0.10000000    


 reading orbital data $scfmo  from file mos
 orbital characterization : scfconv=6

 DSCF restart information will be dumped onto file mos


 Starting SCF iterations

          Overall gridpoints after grid construction =          7373

 ITERATION  ENERGY          1e-ENERGY        2e-ENERGY     NORM[dD(SAO)]  TOL
   1  -76.262536987465    -119.72705972     36.006768338    0.000D+00 0.133D-08
                            Exc = -9.18671728330     Coul =  45.1934856216    
                              N = 10.000000833    
                            current damping = 0.700
 
          max. resid. norm for Fia-block=  5.720D-02 for orbital      4a         
          max. resid. fock norm         =  3.207D-01 for orbital     24a         

 ITERATION  ENERGY          1e-ENERGY        2e-ENERGY     NORM[dD(SAO)]  TOL
   2  -76.270961440465    -119.70854743     35.979831588    0.133D+00 0.844D-09
                            Exc = -9.19058684274     Coul =  45.1704184307    
                              N = 10.000000862    
                            current damping = 0.650
 
          Norm of current diis error: 0.81340E-01
          max. resid. norm for Fia-block=  2.088D-02 for orbital      3a         
          max. resid. fock norm         =  1.265D-01 for orbital     24a         

 ITERATION  ENERGY          1e-ENERGY        2e-ENERGY     NORM[dD(SAO)]  TOL
   3  -76.271975825030    -119.85122503     36.121494805    0.310D-01 0.679D-09
                            Exc = -9.20723998700     Coul =  45.3287347918    
                              N = 10.000001038    
                            current damping = 0.600
 
          Norm of current diis error: 0.46673E-01
          max. resid. norm for Fia-block=  1.002D-02 for orbital      4a         
          max. resid. fock norm         =  4.716D-02 for orbital     24a         

 ITERATION  ENERGY          1e-ENERGY        2e-ENERGY     NORM[dD(SAO)]  TOL
   4  -76.272182518201    -119.65591108     35.925974163    0.175D-01 0.643D-09
                            Exc = -9.18523686804     Coul =  45.1112110307    
                              N = 10.000001092    
                            current damping = 0.650
 
          Norm of current diis error: 0.39355E-01
          max. resid. norm for Fia-block=  4.051D-03 for orbital      4a         
          max. resid. fock norm         =  1.734D-02 for orbital     24a         

 ITERATION  ENERGY          1e-ENERGY        2e-ENERGY     NORM[dD(SAO)]  TOL
   5  -76.272384721370    -119.73423926     36.004100139    0.113D-02 0.611D-09
                            Exc = -9.19429167362     Coul =  45.1983918127    
                              N = 10.000001108    
                            current damping = 0.700
 
          Norm of current diis error: 0.85303E-02
          max. resid. norm for Fia-block=  1.341D-03 for orbital      4a         
          max. resid. fock norm         =  6.759D-03 for orbital     24a         
          mo-orthogonalization: Cholesky decomposition

 ITERATION  ENERGY          1e-ENERGY        2e-ENERGY     NORM[dD(SAO)]  TOL
   6  -76.272394732818    -119.74902460     36.018875470    0.245D-03 0.571D-09
                            Exc = -9.19607537140     Coul =  45.2149508410    
                              N = 10.000001115    
                            current damping = 0.550
 
          Norm of current diis error: 0.23263E-02
          max. resid. norm for Fia-block=  5.062D-04 for orbital      4a         
          max. resid. fock norm         =  2.773D-03 for orbital     24a         

 ENERGY CONVERGED !

          Overall gridpoints after grid construction =         28360

 ITERATION  ENERGY          1e-ENERGY        2e-ENERGY     NORM[dD(SAO)]  TOL
   7  -76.272390168039    -119.75179045     36.021645886    0.421D-04 0.547D-09
                            Exc = -9.19640515383     Coul =  45.2180510398    
                              N = 10.000000112    
                            current damping = 0.400
 
          Norm of current diis error: 0.70186E-03
          max. resid. norm for Fia-block=  1.766D-04 for orbital      4a         
          max. resid. fock norm         =  9.811D-04 for orbital     24a         

 End of SCF iterations

   convergence criteria satisfied after    7 iterations


                  ------------------------------------------ 
                 |  total energy      =    -76.27239016804  |
                  ------------------------------------------ 
                 :  kinetic energy    =     75.47547677947  :
                 :  potential energy  =   -151.74786694751  :
                 :  virial theorem    =      1.98955174491  :
                 :  wavefunction norm =      1.00000000000  :
                  .......................................... 


 <geterg> : there is no data group $energy 


 <skperg> : $end is missing 


 orbitals $scfmo  will be written to file mos

    irrep                  1a          2a          3a          4a          5a   
 eigenvalues H        -18.78690    -0.84624    -0.39716    -0.30316    -0.22490
            eV        -511.2215    -23.0277    -10.8074     -8.2494     -6.1199
 occupation              2.0000      2.0000      2.0000      2.0000      2.0000 

    irrep                  6a          7a          8a          9a         10a   
 eigenvalues H         -0.11051     0.07072     0.40325     0.54947     0.84643
            eV          -3.0072      1.9243     10.9731     14.9520     23.0327
 
 
 
 
 ==============================================================================
                           electrostatic moments
 ==============================================================================

 reference point for electrostatic moments:    0.00000   0.00000   0.00000

 
              nuc           elec       ->  total
 ------------------------------------------------------------------------------
                          charge      
 ------------------------------------------------------------------------------
          10.000000     -10.000000      -0.000000
 
 ------------------------------------------------------------------------------
                       dipole moment  
 ------------------------------------------------------------------------------
   x     -57.138447      56.855858      -0.282589
   y      -4.566944       4.115887      -0.451057
   z      -1.074050       0.532359      -0.541691
 
   | dipole moment | =     0.7594 a.u. =     1.9303 debye 
 
 ------------------------------------------------------------------------------
                     quadrupole moment
 ------------------------------------------------------------------------------
  xx     329.495819    -330.822122      -1.326303
  yy       6.508145     -10.232996      -3.724852
  zz       3.195696      -7.271933      -4.076237
  xy      29.717712     -25.824378       3.893334
  xz       4.808797      -2.270060       2.538738
  yz      -0.687329       0.464525      -0.222804
 
     1/3  trace=      -3.042464
     anisotropy=       8.466284
 
 ==============================================================================
 


    ------------------------------------------------------------------------
         total  cpu-time :   0.20 seconds
         total wall-time :   0.21 seconds
    ------------------------------------------------------------------------

   ****  ridft : all done  ****


    2020-12-01 10:45:05.541 

