--- PyADF *** new job *** PyADF ---
 operating system is UNIX !
 hostname is nitrogen02

 ridft (nitrogen02) : TURBOMOLE V7.1 ( 20661 ) 10 Jun 2016 at 08:56:48
 Copyright (C) 2016 TURBOMOLE GmbH, Karlsruhe


    2020-12-01 10:45:03.530 



                                  r i d f t

                        DFT program with RI approximation 
                                for coulomb part 




                                                 
                                 References:     
                                                 
          TURBOMOLE:                             
              R. Ahlrichs, M. Baer, M. Haeser, H. Horn, and
              C. Koelmel
              Electronic structure calculations on workstation
              computers: the program system TURBOMOLE
              Chem. Phys. Lett. 162: 165 (1989)
          Density Functional:                              
              O. Treutler and R. Ahlrichs                      
              Efficient Molecular Numerical Integration Schemes
              J. Chem. Phys. 102: 346 (1995)                   
          Parallel Version:                                
              Performance of parallel TURBOMOLE for Density    
              Functional Calculations                          
              M. v. Arnim and R. Ahlrichs                      
              J. Comp. Chem. 19: 1746 (1998)                   
          RI-J Method:                                     
              Auxiliary Basis Sets to approximate Coulomb      
              Potentials                                       
              Chem. Phys. Lett. 240: 283 (1995)                
              K. Eichkorn, O. Treutler, H. Oehm, M. Haeser     
              and R. Ahlrichs                                  
              Chem. Phys. Lett. 242: 652 (1995)                
                                                           
              Auxiliary Basis Sets for Main Row Atoms and their
              Use to approximate Coulomb Potentials            
              K. Eichkorn, F. Weigend, O. Treutler and         
              R. Ahlrichs                                      
              Theo. Chem. Acc. 97: 119 (1997)                   
                                                           
              Accurate Coulomb-fitting basis sets for H to Rn 
              F. Weigend                                        
              Phys. Chem. Chem. Phys. 8: 1057 (2006)            
                                                           
          Multipole accelerated RI-J (MARI-J):             
              Fast evaluation of the Coulomb potential for     
              electron densities using multipole accelerated   
              resolution of identity approximation             
              M. Sierka, A. Hogekamp and R. Ahlrichs           
              J. Chem. Phys. 118: 9136 (2003)                  
          RI-JK Method:                                     
              A fully direct RI-HF algorithm: Implementation,
              optimised auxiliary basis sets, demonstration of
              accuracy and efficiency                         
              F. Weigend                                      
              Phys. Chem. Chem. Phys. 4: 4285 (2002)           
          Two-component HF and DFT with spin-orbit coupling:  
              Self-consistent treatment of spin-orbit         
              interactions with efficient Hartree-Fock and    
              density functional methods                      
              M. K. Armbruster, F. Weigend, C. van Wüllen and 
              W. Klopper                                      
              Phys. Chem. Chem. Phys. 10: 1748 (2008)         
          Relativistic all-electron 2c calculations           
              An efficient implementation of two-component    
              relativistic exact-decoupling methods for large 
              molecules                                       
              D. Peng, N. Middendorf, F. Weigend, M. Reiher   
              J. Chem. Phys. 138, 184105 (2013)               
                                         


 


              +--------------------------------------------------+
              |      general information about current run       |
              +--------------------------------------------------+

 
 B-P86 functional
 exchange:    LDA + Becke (B88)
 correlation: LDA (VWN) + Perdew (P86)
 A DFT calculation using the RI-J approximation will be carried out.
 Allocatable memory for RI due to $ricore (MB):        2000


              +--------------------------------------------------+
              | Atomic coordinate, charge and isotop information |
              +--------------------------------------------------+

                    atomic coordinates            atom    charge  isotop
         -5.60240143   -0.28949632    0.04246713    o      8.000     0
         -5.32703716   -0.20944301   -1.57657996    h      1.000     0
         -6.74799027   -1.72894354    0.16980011    h      1.000     0
 
       center of nuclear mass  :   -5.65109106   -0.36555530   -0.04099524
       center of nuclear charge:   -5.68942389   -0.42543571   -0.10670428

              +--------------------------------------------------+
              |               basis set information              |
              +--------------------------------------------------+

              we will work with the 1s 3p 5d 7f 9g ... basis set
              ...i.e. with spherical basis functions...

   type   atoms  prim   cont   basis
   ---------------------------------------------------------------------------
    o        1     24     14   def2-SVP   [3s2p1d|7s4p1d]
    h        2      7      5   def2-SVP   [2s1p|4s1p]
   ---------------------------------------------------------------------------
   total:    3     38     24
   ---------------------------------------------------------------------------

   total number of primitive shells          :   17
   total number of contracted shells         :   12
   total number of cartesian basis functions :   25
   total number of SCF-basis functions       :   24


 integral neglect threshold       :  0.13E-08
 integral storage threshold THIZE :  0.10E-04
 integral storage threshold THIME :         5

 RI-J AUXILIARY BASIS SET information:

              we will work with the 1s 3p 5d 7f 9g ... basis set
              ...i.e. with spherical basis functions...

   type   atoms  prim   cont   basis
   ---------------------------------------------------------------------------
    o        1     70     49   def2-SVP   [6s4p3d1f1g|12s5p4d2f1g]
    h        2     16     11   def2-SVP   [3s1p1d|5s2p1d]
   ---------------------------------------------------------------------------
   total:    3    102     71
   ---------------------------------------------------------------------------

   total number of primitive shells          :   32
   total number of contracted shells         :   25
   total number of cartesian basis functions :   85
   total number of SCF-basis functions       :   71


 symmetry group of the molecule :   c1 

 the group has the following generators :
   c1(z)

    1 symmetry operations found

 there are 1 real representations :   a   

 maximum number of shells which are related by symmetry :  1


    mo occupation :
   irrep   mo's   occupied
    a       24        5
 
 number of basis functions   :           24
 number of occupied orbitals :            5
 
  
           ------------------
           density functional
           ------------------
 B-P86 functional
 exchange:    LDA + Becke (B88)
 correlation: LDA (VWN) + Perdew (P86)
 iterations will be done with small grid
  
 spherical integration : Lebedev's spherical grid
 spherical gridsize    :           4
    i.e. gridpoints    :         434
 value for diffuse not defined
 radial integration    : Chebyshev 2nd kind (scaling 3)
 radial gridsize       :           6
 integration cells     :           3
 partition function    : becke
 partition sharpness   :           3
  

 biggest AO integral is expected to be     4.776656448
  
           ------------------------
               RI-J - INFORMATION
           ------------------------
 Contributions to RI integral batches: 
  neglected integral batches:           0
  direct contribution:                  0
  memory contribution:          78
 Memory core needed for (P|Q) and Cholesky      1 MByte
 Memory core minimum needed except of (P|Q)     1 MByte
 Total minimum memory core needed (sum)         1 MByte
  
 ****************************************
 Memory allocated for RI-J     1 MByte
 ****************************************
                                            

          ------------------------
          nuclear repulsion energy  :   9.57183788816    
          ------------------------

 
          -----------------
          -S,T+V- integrals
          -----------------

 1e-integrals will be neglected if expon. factor < 0.133678E-09
 
   Difference densities algorithm switched on.
   The maximal number of linear combinations of
   difference densities is          20 .

 DIIS switched on: error vector is FDS-SDF
 Max. Iterations for DIIS is     :   4
 DIIS matrix (see manual) 
    Scaling factor of diagonals  :  1.200
    threshold for scaling factor :  0.000

 scf convergence criterion : increment of total energy < .1000000D-05
                  and increment of one-electron energy < .1000000D-02


 <geterg> : there is no data group $energy 

  MOs are in ASCII format !


 automatic virtual orbital shift switched on 
      shift if e(lumo)-e(homo) < 0.10000000    


 reading orbital data $scfmo  from file mos
 orbital characterization : expanded
 mo provided and orthogonalized by Cholesky decomposition

 DSCF restart information will be dumped onto file mos


 Starting SCF iterations

          Overall gridpoints after grid construction =          7363

 ITERATION  ENERGY          1e-ENERGY        2e-ENERGY     NORM[dD(SAO)]  TOL
   1  -76.120022654811    -124.76642120     39.074560657    0.000D+00 0.133D-08
                            Exc = -9.51424112845     Coul =  48.5888017855    
                              N = 9.9999826585    
                            current damping = 0.700
 
          max. resid. norm for Fia-block=  2.910D-01 for orbital      4a         
          max. resid. fock norm         =  1.282D+00 for orbital     22a         

 ITERATION  ENERGY          1e-ENERGY        2e-ENERGY     NORM[dD(SAO)]  TOL
   2  -76.309407731603    -123.67587917     37.794633553    0.486D+00 0.882D-09
                            Exc = -9.35612818535     Coul =  47.1507617388    
                              N = 9.9999835280    
                            current damping = 0.650
 
          Norm of current diis error: 0.52820    
          max. resid. norm for Fia-block=  1.362D-01 for orbital      1a         
          max. resid. fock norm         =  1.390D-01 for orbital      1a         

 ITERATION  ENERGY          1e-ENERGY        2e-ENERGY     NORM[dD(SAO)]  TOL
   3  -76.341237456083    -123.92128899     38.008213648    0.171D+00 0.665D-09
                            Exc = -9.40661659951     Coul =  47.4148302471    
                              N = 9.9999841162    
                            current damping = 0.600
 
          Norm of current diis error: 0.24643    
          max. resid. norm for Fia-block=  5.362D-02 for orbital      1a         
          max. resid. fock norm         =  5.552D-02 for orbital      1a         

 ITERATION  ENERGY          1e-ENERGY        2e-ENERGY     NORM[dD(SAO)]  TOL
   4  -76.349465858132    -123.67363329     37.752329547    0.653D-01 0.576D-09
                            Exc = -9.38244460101     Coul =  47.1347741482    
                              N = 9.9999840205    
                            current damping = 0.650
 
          Norm of current diis error: 0.85560E-01
          max. resid. norm for Fia-block=  2.084D-02 for orbital      1a         
          max. resid. fock norm         =  2.242D-02 for orbital      6a         

 ITERATION  ENERGY          1e-ENERGY        2e-ENERGY     NORM[dD(SAO)]  TOL
   5  -76.350624968825    -123.75226094     37.829798081    0.135D-01 0.534D-09
                            Exc = -9.39750517908     Coul =  47.2273032603    
                              N = 9.9999840991    
                            current damping = 0.700
 
          Norm of current diis error: 0.35593E-01
          max. resid. norm for Fia-block=  8.037D-03 for orbital      1a         
          max. resid. fock norm         =  8.410D-03 for orbital      6a         
          mo-orthogonalization: Cholesky decomposition

 ITERATION  ENERGY          1e-ENERGY        2e-ENERGY     NORM[dD(SAO)]  TOL
   6  -76.350830875140    -123.72448849     37.801819722    0.203D-02 0.506D-09
                            Exc = -9.39540689376     Coul =  47.1972266160    
                              N = 9.9999840800    
                            current damping = 0.750
 
          Norm of current diis error: 0.13518E-01
          max. resid. norm for Fia-block=  3.371D-03 for orbital      1a         
          max. resid. fock norm         =  3.618D-03 for orbital      6a         

 ITERATION  ENERGY          1e-ENERGY        2e-ENERGY     NORM[dD(SAO)]  TOL
   7  -76.350862120849    -123.72905449     37.806354484    0.252D-03 0.487D-09
                            Exc = -9.39670447127     Coul =  47.2030589555    
                              N = 9.9999840809    
                            current damping = 0.800
 
          Norm of current diis error: 0.58525E-02
          max. resid. norm for Fia-block=  1.428D-03 for orbital      1a         
          max. resid. fock norm         =  1.523D-03 for orbital      6a         

 ITERATION  ENERGY          1e-ENERGY        2e-ENERGY     NORM[dD(SAO)]  TOL
   8  -76.350867990016    -123.72762217     37.804916291    0.293D-04 0.473D-09
                            Exc = -9.39679343263     Coul =  47.2017097232    
                              N = 9.9999840792    
                            current damping = 0.850
 
          Norm of current diis error: 0.25549E-02
          max. resid. norm for Fia-block=  6.408D-04 for orbital      1a         
          max. resid. fock norm         =  6.959D-04 for orbital      6a         

 ENERGY CONVERGED !

          Overall gridpoints after grid construction =         28297

 ITERATION  ENERGY          1e-ENERGY        2e-ENERGY     NORM[dD(SAO)]  TOL
   9  -76.350865084820    -123.72867348     37.805970505    0.696D-05 0.460D-09
                            Exc = -9.39705346154     Coul =  47.2030239668    
                              N = 10.000000052    
                            current damping = 0.900
 
          Norm of current diis error: 0.12002E-02
          max. resid. norm for Fia-block=  2.904D-04 for orbital      1a         
          max. resid. fock norm         =  3.101D-04 for orbital      6a         

 End of SCF iterations

   convergence criteria satisfied after    9 iterations


                  ------------------------------------------ 
                 |  total energy      =    -76.35086508482  |
                  ------------------------------------------ 
                 :  kinetic energy    =     75.97787382280  :
                 :  potential energy  =   -152.32873890762  :
                 :  virial theorem    =      1.99511477360  :
                 :  wavefunction norm =      1.00000000000  :
                  .......................................... 


 <geterg> : there is no data group $energy 


 <skperg> : $end is missing 


 orbitals $scfmo  will be written to file mos

    irrep                  1a          2a          3a          4a          5a   
 eigenvalues H        -18.75347    -0.91588    -0.47229    -0.31600    -0.23739
            eV        -510.3120    -24.9226    -12.8517     -8.5988     -6.4597
 occupation              2.0000      2.0000      2.0000      2.0000      2.0000 

    irrep                  6a          7a          8a          9a         10a   
 eigenvalues H          0.03952     0.12389     0.52129     0.64380     0.86146
            eV           1.0754      3.3713     14.1851     17.5189     23.4417
 
 
 
 
 ==============================================================================
                           electrostatic moments
 ==============================================================================

 reference point for electrostatic moments:    0.00000   0.00000   0.00000

 
              nuc           elec       ->  total
 ------------------------------------------------------------------------------
                          charge      
 ------------------------------------------------------------------------------
          10.000000     -10.000000      -0.000000
 
 ------------------------------------------------------------------------------
                       dipole moment  
 ------------------------------------------------------------------------------
   x     -56.894239      56.604230      -0.290009
   y      -4.254357       3.792650      -0.461708
   z      -1.067043       0.518160      -0.548883
 
   | dipole moment | =     0.7737 a.u. =     1.9665 debye 
 
 ------------------------------------------------------------------------------
                     quadrupole moment
 ------------------------------------------------------------------------------
  xx     325.007912    -326.247854      -1.239942
  yy       3.703577      -7.621603      -3.918026
  zz       2.528864      -6.410621      -3.881757
  xy      25.757602     -22.314632       3.442969
  xz       5.349347      -2.610198       2.739149
  yz      -0.061724       0.006445      -0.055279
 
     1/3  trace=      -3.013242
     anisotropy=       8.071952
 
 ==============================================================================
 


    ------------------------------------------------------------------------
         total  cpu-time :   0.24 seconds
         total wall-time :   0.24 seconds
    ------------------------------------------------------------------------

   ****  ridft : all done  ****


    2020-12-01 10:45:03.767 

--- PyADF *** new job *** PyADF ---
 operating system is UNIX !
 hostname is nitrogen02

 ridft (nitrogen02) : TURBOMOLE V7.1 ( 20661 ) 10 Jun 2016 at 08:56:48
 Copyright (C) 2016 TURBOMOLE GmbH, Karlsruhe


    2020-12-01 10:45:03.998 



                                  r i d f t

                        DFT program with RI approximation 
                                for coulomb part 




                                                 
                                 References:     
                                                 
          TURBOMOLE:                             
              R. Ahlrichs, M. Baer, M. Haeser, H. Horn, and
              C. Koelmel
              Electronic structure calculations on workstation
              computers: the program system TURBOMOLE
              Chem. Phys. Lett. 162: 165 (1989)
          Density Functional:                              
              O. Treutler and R. Ahlrichs                      
              Efficient Molecular Numerical Integration Schemes
              J. Chem. Phys. 102: 346 (1995)                   
          Parallel Version:                                
              Performance of parallel TURBOMOLE for Density    
              Functional Calculations                          
              M. v. Arnim and R. Ahlrichs                      
              J. Comp. Chem. 19: 1746 (1998)                   
          RI-J Method:                                     
              Auxiliary Basis Sets to approximate Coulomb      
              Potentials                                       
              Chem. Phys. Lett. 240: 283 (1995)                
              K. Eichkorn, O. Treutler, H. Oehm, M. Haeser     
              and R. Ahlrichs                                  
              Chem. Phys. Lett. 242: 652 (1995)                
                                                           
              Auxiliary Basis Sets for Main Row Atoms and their
              Use to approximate Coulomb Potentials            
              K. Eichkorn, F. Weigend, O. Treutler and         
              R. Ahlrichs                                      
              Theo. Chem. Acc. 97: 119 (1997)                   
                                                           
              Accurate Coulomb-fitting basis sets for H to Rn 
              F. Weigend                                        
              Phys. Chem. Chem. Phys. 8: 1057 (2006)            
                                                           
          Multipole accelerated RI-J (MARI-J):             
              Fast evaluation of the Coulomb potential for     
              electron densities using multipole accelerated   
              resolution of identity approximation             
              M. Sierka, A. Hogekamp and R. Ahlrichs           
              J. Chem. Phys. 118: 9136 (2003)                  
          RI-JK Method:                                     
              A fully direct RI-HF algorithm: Implementation,
              optimised auxiliary basis sets, demonstration of
              accuracy and efficiency                         
              F. Weigend                                      
              Phys. Chem. Chem. Phys. 4: 4285 (2002)           
          Two-component HF and DFT with spin-orbit coupling:  
              Self-consistent treatment of spin-orbit         
              interactions with efficient Hartree-Fock and    
              density functional methods                      
              M. K. Armbruster, F. Weigend, C. van Wüllen and 
              W. Klopper                                      
              Phys. Chem. Chem. Phys. 10: 1748 (2008)         
          Relativistic all-electron 2c calculations           
              An efficient implementation of two-component    
              relativistic exact-decoupling methods for large 
              molecules                                       
              D. Peng, N. Middendorf, F. Weigend, M. Reiher   
              J. Chem. Phys. 138, 184105 (2013)               
                                         


 


              +--------------------------------------------------+
              |      general information about current run       |
              +--------------------------------------------------+

 
 B-P86 functional
 exchange:    LDA + Becke (B88)
 correlation: LDA (VWN) + Perdew (P86)
 A DFT calculation using the RI-J approximation will be carried out.
 Allocatable memory for RI due to $ricore (MB):        2000


              +--------------------------------------------------+
              | Atomic coordinate, charge and isotop information |
              +--------------------------------------------------+

                    atomic coordinates            atom    charge  isotop
         -5.61638930   -0.30515199    0.05548517    o      8.000     0
         -5.29795393   -0.20288700   -1.75893117    h      1.000     0
         -6.55508423   -1.48702675    0.14554122    h      1.000     0
 
       center of nuclear mass  :   -5.65109323   -0.36555686   -0.04099391
       center of nuclear charge:   -5.67841526   -0.41311297   -0.11695086

              +--------------------------------------------------+
              |               basis set information              |
              +--------------------------------------------------+

              we will work with the 1s 3p 5d 7f 9g ... basis set
              ...i.e. with spherical basis functions...

   type   atoms  prim   cont   basis
   ---------------------------------------------------------------------------
    o        1     24     14   def2-SVP   [3s2p1d|7s4p1d]
    h        2      7      5   def2-SVP   [2s1p|4s1p]
   ---------------------------------------------------------------------------
   total:    3     38     24
   ---------------------------------------------------------------------------

   total number of primitive shells          :   17
   total number of contracted shells         :   12
   total number of cartesian basis functions :   25
   total number of SCF-basis functions       :   24


 integral neglect threshold       :  0.13E-08
 integral storage threshold THIZE :  0.10E-04
 integral storage threshold THIME :         5

 RI-J AUXILIARY BASIS SET information:

              we will work with the 1s 3p 5d 7f 9g ... basis set
              ...i.e. with spherical basis functions...

   type   atoms  prim   cont   basis
   ---------------------------------------------------------------------------
    o        1     70     49   def2-SVP   [6s4p3d1f1g|12s5p4d2f1g]
    h        2     16     11   def2-SVP   [3s1p1d|5s2p1d]
   ---------------------------------------------------------------------------
   total:    3    102     71
   ---------------------------------------------------------------------------

   total number of primitive shells          :   32
   total number of contracted shells         :   25
   total number of cartesian basis functions :   85
   total number of SCF-basis functions       :   71


 symmetry group of the molecule :   c1 

 the group has the following generators :
   c1(z)

    1 symmetry operations found

 there are 1 real representations :   a   

 maximum number of shells which are related by symmetry :  1


    mo occupation :
   irrep   mo's   occupied
    a       24        5
 
 number of basis functions   :           24
 number of occupied orbitals :            5
 
  
           ------------------
           density functional
           ------------------
 B-P86 functional
 exchange:    LDA + Becke (B88)
 correlation: LDA (VWN) + Perdew (P86)
 iterations will be done with small grid
  
 spherical integration : Lebedev's spherical grid
 spherical gridsize    :           4
    i.e. gridpoints    :         434
 value for diffuse not defined
 radial integration    : Chebyshev 2nd kind (scaling 3)
 radial gridsize       :           6
 integration cells     :           3
 partition function    : becke
 partition sharpness   :           3
  

 biggest AO integral is expected to be     4.776656448
  
           ------------------------
               RI-J - INFORMATION
           ------------------------
 Contributions to RI integral batches: 
  neglected integral batches:           0
  direct contribution:                  0
  memory contribution:          78
 Memory core needed for (P|Q) and Cholesky      1 MByte
 Memory core minimum needed except of (P|Q)     1 MByte
 Total minimum memory core needed (sum)         1 MByte
  
 ****************************************
 Memory allocated for RI-J     1 MByte
 ****************************************
                                            

          ------------------------
          nuclear repulsion energy  :   10.0090549897    
          ------------------------

 
          -----------------
          -S,T+V- integrals
          -----------------

 1e-integrals will be neglected if expon. factor < 0.133678E-09
 
   Difference densities algorithm switched on.
   The maximal number of linear combinations of
   difference densities is          20 .

 DIIS switched on: error vector is FDS-SDF
 Max. Iterations for DIIS is     :   4
 DIIS matrix (see manual) 
    Scaling factor of diagonals  :  1.200
    threshold for scaling factor :  0.000

 scf convergence criterion : increment of total energy < .1000000D-05
                  and increment of one-electron energy < .1000000D-02


 <geterg> : there is no data group $energy 

  MOs are in ASCII format !


 automatic virtual orbital shift switched on 
      shift if e(lumo)-e(homo) < 0.10000000    


 reading orbital data $scfmo  from file mos
 orbital characterization : scfconv=6

 DSCF restart information will be dumped onto file mos


 Starting SCF iterations

          Overall gridpoints after grid construction =          7363

 ITERATION  ENERGY          1e-ENERGY        2e-ENERGY     NORM[dD(SAO)]  TOL
   1  -76.307700101109    -124.32100242     38.004247333    0.000D+00 0.133D-08
                            Exc = -9.42193591738     Coul =  47.4261832506    
                              N = 9.9999958261    
                            current damping = 0.700
 
          max. resid. norm for Fia-block=  7.234D-02 for orbital      3a         
          max. resid. fock norm         =  2.136D-01 for orbital      8a         

 ITERATION  ENERGY          1e-ENERGY        2e-ENERGY     NORM[dD(SAO)]  TOL
   2  -76.319501186610    -124.50212409     38.173567915    0.161D+00 0.846D-09
                            Exc = -9.44578257998     Coul =  47.6193504953    
                              N = 9.9999960278    
                            current damping = 0.650
 
          Norm of current diis error: 0.90307E-01
          max. resid. norm for Fia-block=  2.277D-02 for orbital      3a         
          max. resid. fock norm         =  9.577D-02 for orbital     24a         

 ITERATION  ENERGY          1e-ENERGY        2e-ENERGY     NORM[dD(SAO)]  TOL
   3  -76.320839326094    -124.38812846     38.058234146    0.360D-01 0.674D-09
                            Exc = -9.43035999675     Coul =  47.4885941428    
                              N = 9.9999960479    
                            current damping = 0.600
 
          Norm of current diis error: 0.43074E-01
          max. resid. norm for Fia-block=  1.009D-02 for orbital      3a         
          max. resid. fock norm         =  3.762D-02 for orbital     24a         

 ITERATION  ENERGY          1e-ENERGY        2e-ENERGY     NORM[dD(SAO)]  TOL
   4  -76.321107281803    -124.46562687     38.135464597    0.107D-01 0.624D-09
                            Exc = -9.44090973407     Coul =  47.5763743315    
                              N = 9.9999960944    
                            current damping = 0.650
 
          Norm of current diis error: 0.14548E-01
          max. resid. norm for Fia-block=  3.463D-03 for orbital      3a         
          max. resid. fock norm         =  1.405D-02 for orbital     24a         

 ITERATION  ENERGY          1e-ENERGY        2e-ENERGY     NORM[dD(SAO)]  TOL
   5  -76.321140378574    -124.44996537     38.119770000    0.134D-02 0.592D-09
                            Exc = -9.43880980810     Coul =  47.5585798081    
                              N = 9.9999961002    
                            current damping = 0.700
 
          Norm of current diis error: 0.45136E-02
          max. resid. norm for Fia-block=  1.276D-03 for orbital      3a         
          max. resid. fock norm         =  5.596D-03 for orbital     24a         
          mo-orthogonalization: Cholesky decomposition

 ITERATION  ENERGY          1e-ENERGY        2e-ENERGY     NORM[dD(SAO)]  TOL
   6  -76.321144324408    -124.44941007     38.119210760    0.913D-04 0.561D-09
                            Exc = -9.43875007796     Coul =  47.5579608380    
                              N = 9.9999961042    
                            current damping = 0.550
 
          Norm of current diis error: 0.18179E-02
          max. resid. norm for Fia-block=  5.209D-04 for orbital      3a         
          max. resid. fock norm         =  2.319D-03 for orbital     24a         

 ENERGY CONVERGED !

          Overall gridpoints after grid construction =         28292

 ITERATION  ENERGY          1e-ENERGY        2e-ENERGY     NORM[dD(SAO)]  TOL
   7  -76.321140786093    -124.44915349     38.118957713    0.143D-04 0.530D-09
                            Exc = -9.43871741594     Coul =  47.5576751293    
                              N = 9.9999999441    
                            current damping = 0.400
 
          Norm of current diis error: 0.65432E-03
          max. resid. norm for Fia-block=  1.909D-04 for orbital      3a         
          max. resid. fock norm         =  8.155D-04 for orbital     24a         

 End of SCF iterations

   convergence criteria satisfied after    7 iterations


                  ------------------------------------------ 
                 |  total energy      =    -76.32114078609  |
                  ------------------------------------------ 
                 :  kinetic energy    =     76.16613391819  :
                 :  potential energy  =   -152.48727470429  :
                 :  virial theorem    =      1.99796901794  :
                 :  wavefunction norm =      1.00000000000  :
                  .......................................... 


 <geterg> : there is no data group $energy 


 <skperg> : $end is missing 


 orbitals $scfmo  will be written to file mos

    irrep                  1a          2a          3a          4a          5a   
 eigenvalues H        -18.74729    -0.93738    -0.48414    -0.31836    -0.24093
            eV        -510.1438    -25.5076    -13.1743     -8.6630     -6.5560
 occupation              2.0000      2.0000      2.0000      2.0000      2.0000 

    irrep                  6a          7a          8a          9a         10a   
 eigenvalues H          0.04274     0.13480     0.52260     0.71528     0.85776
            eV           1.1630      3.6681     14.2209     19.4640     23.3411
 
 
 
 
 ==============================================================================
                           electrostatic moments
 ==============================================================================

 reference point for electrostatic moments:    0.00000   0.00000   0.00000

 
              nuc           elec       ->  total
 ------------------------------------------------------------------------------
                          charge      
 ------------------------------------------------------------------------------
          10.000000     -10.000000      -0.000000
 
 ------------------------------------------------------------------------------
                       dipole moment  
 ------------------------------------------------------------------------------
   x     -56.784153      56.531025      -0.253127
   y      -4.131130       3.709713      -0.421417
   z      -1.169509       0.580332      -0.589177
 
   | dipole moment | =     0.7673 a.u. =     1.9504 debye 
 
 ------------------------------------------------------------------------------
                     quadrupole moment
 ------------------------------------------------------------------------------
  xx     323.388076    -325.105512      -1.717436
  yy       2.997354      -7.081385      -4.084031
  zz       3.139650      -6.772986      -3.633336
  xy      24.533291     -21.485979       3.047311
  xz       5.871691      -2.921602       2.950089
  yz       0.004989      -0.035348      -0.030359
 
     1/3  trace=      -3.144935
     anisotropy=       7.662078
 
 ==============================================================================
 


    ------------------------------------------------------------------------
         total  cpu-time :   0.20 seconds
         total wall-time :   0.20 seconds
    ------------------------------------------------------------------------

   ****  ridft : all done  ****


    2020-12-01 10:45:04.200 

--- PyADF *** new job *** PyADF ---
 operating system is UNIX !
 hostname is nitrogen02

 ridft (nitrogen02) : TURBOMOLE V7.1 ( 20661 ) 10 Jun 2016 at 08:56:48
 Copyright (C) 2016 TURBOMOLE GmbH, Karlsruhe


    2020-12-01 10:45:04.371 



                                  r i d f t

                        DFT program with RI approximation 
                                for coulomb part 




                                                 
                                 References:     
                                                 
          TURBOMOLE:                             
              R. Ahlrichs, M. Baer, M. Haeser, H. Horn, and
              C. Koelmel
              Electronic structure calculations on workstation
              computers: the program system TURBOMOLE
              Chem. Phys. Lett. 162: 165 (1989)
          Density Functional:                              
              O. Treutler and R. Ahlrichs                      
              Efficient Molecular Numerical Integration Schemes
              J. Chem. Phys. 102: 346 (1995)                   
          Parallel Version:                                
              Performance of parallel TURBOMOLE for Density    
              Functional Calculations                          
              M. v. Arnim and R. Ahlrichs                      
              J. Comp. Chem. 19: 1746 (1998)                   
          RI-J Method:                                     
              Auxiliary Basis Sets to approximate Coulomb      
              Potentials                                       
              Chem. Phys. Lett. 240: 283 (1995)                
              K. Eichkorn, O. Treutler, H. Oehm, M. Haeser     
              and R. Ahlrichs                                  
              Chem. Phys. Lett. 242: 652 (1995)                
                                                           
              Auxiliary Basis Sets for Main Row Atoms and their
              Use to approximate Coulomb Potentials            
              K. Eichkorn, F. Weigend, O. Treutler and         
              R. Ahlrichs                                      
              Theo. Chem. Acc. 97: 119 (1997)                   
                                                           
              Accurate Coulomb-fitting basis sets for H to Rn 
              F. Weigend                                        
              Phys. Chem. Chem. Phys. 8: 1057 (2006)            
                                                           
          Multipole accelerated RI-J (MARI-J):             
              Fast evaluation of the Coulomb potential for     
              electron densities using multipole accelerated   
              resolution of identity approximation             
              M. Sierka, A. Hogekamp and R. Ahlrichs           
              J. Chem. Phys. 118: 9136 (2003)                  
          RI-JK Method:                                     
              A fully direct RI-HF algorithm: Implementation,
              optimised auxiliary basis sets, demonstration of
              accuracy and efficiency                         
              F. Weigend                                      
              Phys. Chem. Chem. Phys. 4: 4285 (2002)           
          Two-component HF and DFT with spin-orbit coupling:  
              Self-consistent treatment of spin-orbit         
              interactions with efficient Hartree-Fock and    
              density functional methods                      
              M. K. Armbruster, F. Weigend, C. van Wüllen and 
              W. Klopper                                      
              Phys. Chem. Chem. Phys. 10: 1748 (2008)         
          Relativistic all-electron 2c calculations           
              An efficient implementation of two-component    
              relativistic exact-decoupling methods for large 
              molecules                                       
              D. Peng, N. Middendorf, F. Weigend, M. Reiher   
              J. Chem. Phys. 138, 184105 (2013)               
                                         


 


              +--------------------------------------------------+
              |      general information about current run       |
              +--------------------------------------------------+

 
 B-P86 functional
 exchange:    LDA + Becke (B88)
 correlation: LDA (VWN) + Perdew (P86)
 A DFT calculation using the RI-J approximation will be carried out.
 Allocatable memory for RI due to $ricore (MB):        2000


              +--------------------------------------------------+
              | Atomic coordinate, charge and isotop information |
              +--------------------------------------------------+

                    atomic coordinates            atom    charge  isotop
         -5.57396610   -0.24095585    0.11583183    o      8.000     0
         -5.81009285   -0.87741562   -1.88728887    h      1.000     0
         -6.71621160   -1.83133360   -0.68382334    h      1.000     0
 
       center of nuclear mass  :   -5.65108693   -0.36554885   -0.04098531
       center of nuclear charge:   -5.71180333   -0.46363960   -0.16444576

              +--------------------------------------------------+
              |               basis set information              |
              +--------------------------------------------------+

              we will work with the 1s 3p 5d 7f 9g ... basis set
              ...i.e. with spherical basis functions...

   type   atoms  prim   cont   basis
   ---------------------------------------------------------------------------
    o        1     24     14   def2-SVP   [3s2p1d|7s4p1d]
    h        2      7      5   def2-SVP   [2s1p|4s1p]
   ---------------------------------------------------------------------------
   total:    3     38     24
   ---------------------------------------------------------------------------

   total number of primitive shells          :   17
   total number of contracted shells         :   12
   total number of cartesian basis functions :   25
   total number of SCF-basis functions       :   24


 integral neglect threshold       :  0.13E-08
 integral storage threshold THIZE :  0.10E-04
 integral storage threshold THIME :         5

 RI-J AUXILIARY BASIS SET information:

              we will work with the 1s 3p 5d 7f 9g ... basis set
              ...i.e. with spherical basis functions...

   type   atoms  prim   cont   basis
   ---------------------------------------------------------------------------
    o        1     70     49   def2-SVP   [6s4p3d1f1g|12s5p4d2f1g]
    h        2     16     11   def2-SVP   [3s1p1d|5s2p1d]
   ---------------------------------------------------------------------------
   total:    3    102     71
   ---------------------------------------------------------------------------

   total number of primitive shells          :   32
   total number of contracted shells         :   25
   total number of cartesian basis functions :   85
   total number of SCF-basis functions       :   71


 symmetry group of the molecule :   c1 

 the group has the following generators :
   c1(z)

    1 symmetry operations found

 there are 1 real representations :   a   

 maximum number of shells which are related by symmetry :  1


    mo occupation :
   irrep   mo's   occupied
    a       24        5
 
 number of basis functions   :           24
 number of occupied orbitals :            5
 
  
           ------------------
           density functional
           ------------------
 B-P86 functional
 exchange:    LDA + Becke (B88)
 correlation: LDA (VWN) + Perdew (P86)
 iterations will be done with small grid
  
 spherical integration : Lebedev's spherical grid
 spherical gridsize    :           4
    i.e. gridpoints    :         434
 value for diffuse not defined
 radial integration    : Chebyshev 2nd kind (scaling 3)
 radial gridsize       :           6
 integration cells     :           3
 partition function    : becke
 partition sharpness   :           3
  

 biggest AO integral is expected to be     4.776656448
  
           ------------------------
               RI-J - INFORMATION
           ------------------------
 Contributions to RI integral batches: 
  neglected integral batches:           0
  direct contribution:                  0
  memory contribution:          78
 Memory core needed for (P|Q) and Cholesky      1 MByte
 Memory core minimum needed except of (P|Q)     1 MByte
 Total minimum memory core needed (sum)         1 MByte
  
 ****************************************
 Memory allocated for RI-J     1 MByte
 ****************************************
                                            

          ------------------------
          nuclear repulsion energy  :   8.12569250801    
          ------------------------

 
          -----------------
          -S,T+V- integrals
          -----------------

 1e-integrals will be neglected if expon. factor < 0.133678E-09
 
   Difference densities algorithm switched on.
   The maximal number of linear combinations of
   difference densities is          20 .

 DIIS switched on: error vector is FDS-SDF
 Max. Iterations for DIIS is     :   4
 DIIS matrix (see manual) 
    Scaling factor of diagonals  :  1.200
    threshold for scaling factor :  0.000

 scf convergence criterion : increment of total energy < .1000000D-05
                  and increment of one-electron energy < .1000000D-02


 <geterg> : there is no data group $energy 

  MOs are in ASCII format !


 automatic virtual orbital shift switched on 
      shift if e(lumo)-e(homo) < 0.10000000    


 reading orbital data $scfmo  from file mos
 orbital characterization : scfconv=6

 DSCF restart information will be dumped onto file mos


 Starting SCF iterations

          Overall gridpoints after grid construction =          7377

 ITERATION  ENERGY          1e-ENERGY        2e-ENERGY     NORM[dD(SAO)]  TOL
   1  -76.155376931046    -121.47976762     37.198698180    0.000D+00 0.133D-08
                            Exc = -9.34593075972     Coul =  46.5446289398    
                              N = 9.9999549319    
                            current damping = 0.700
 
          max. resid. norm for Fia-block=  1.759D-01 for orbital      3a         
          max. resid. fock norm         =  5.618D-01 for orbital     15a         

 ITERATION  ENERGY          1e-ENERGY        2e-ENERGY     NORM[dD(SAO)]  TOL
   2  -76.246695347365    -120.37094299     35.998555134    0.529D+00 0.870D-09
                            Exc = -9.18634971342     Coul =  45.1849048471    
                              N = 9.9999600179    
                            current damping = 0.650
 
          Norm of current diis error: 0.35749    
          max. resid. norm for Fia-block=  7.825D-02 for orbital      3a         
          max. resid. fock norm         =  2.374D-01 for orbital      9a         

 ITERATION  ENERGY          1e-ENERGY        2e-ENERGY     NORM[dD(SAO)]  TOL
   3  -76.268420836355    -121.13802193     36.743908587    0.224D+00 0.708D-09
                            Exc = -9.28111004923     Coul =  46.0250186361    
                              N = 9.9999581806    
                            current damping = 0.600
 
          Norm of current diis error: 0.16958    
          max. resid. norm for Fia-block=  3.669D-02 for orbital      3a         
          max. resid. fock norm         =  8.613D-02 for orbital      8a         

 ITERATION  ENERGY          1e-ENERGY        2e-ENERGY     NORM[dD(SAO)]  TOL
   4  -76.274040089330    -120.80985387     36.410121271    0.591D-01 0.629D-09
                            Exc = -9.24081442883     Coul =  45.6509357001    
                              N = 9.9999592597    
                            current damping = 0.650
 
          Norm of current diis error: 0.47061E-01
          max. resid. norm for Fia-block=  1.315D-02 for orbital      4a         
          max. resid. fock norm         =  3.381D-02 for orbital      8a         

 ITERATION  ENERGY          1e-ENERGY        2e-ENERGY     NORM[dD(SAO)]  TOL
   5  -76.274571095712    -120.82457101     36.424307407    0.959D-02 0.583D-09
                            Exc = -9.24229243884     Coul =  45.6665998462    
                              N = 9.9999592807    
                            current damping = 0.700
 
          Norm of current diis error: 0.17331E-01
          max. resid. norm for Fia-block=  4.792D-03 for orbital      3a         
          max. resid. fock norm         =  1.363D-02 for orbital      8a         
          mo-orthogonalization: Cholesky decomposition

 ITERATION  ENERGY          1e-ENERGY        2e-ENERGY     NORM[dD(SAO)]  TOL
   6  -76.274653569599    -120.82115487     36.420808788    0.643D-03 0.551D-09
                            Exc = -9.24196835194     Coul =  45.6627771395    
                              N = 9.9999592996    
                            current damping = 0.750
 
          Norm of current diis error: 0.73876E-02
          max. resid. norm for Fia-block=  1.943D-03 for orbital      4a         
          max. resid. fock norm         =  5.661D-03 for orbital      8a         

 ITERATION  ENERGY          1e-ENERGY        2e-ENERGY     NORM[dD(SAO)]  TOL
   7  -76.274667579226    -120.82392006     36.423559977    0.142D-03 0.525D-09
                            Exc = -9.24234918754     Coul =  45.6659091650    
                              N = 9.9999592949    
                            current damping = 0.800
 
          Norm of current diis error: 0.30748E-02
          max. resid. norm for Fia-block=  8.708D-04 for orbital      4a         
          max. resid. fock norm         =  2.362D-03 for orbital      8a         

 ENERGY CONVERGED !

          Overall gridpoints after grid construction =         28355

 ITERATION  ENERGY          1e-ENERGY        2e-ENERGY     NORM[dD(SAO)]  TOL
   8  -76.274686104763    -120.82126238     36.420883762    0.954D-04 0.511D-09
                            Exc = -9.24203480674     Coul =  45.6629185692    
                              N = 9.9999997629    
                            current damping = 0.850
 
          Norm of current diis error: 0.16602E-02
          max. resid. norm for Fia-block=  4.162D-04 for orbital      4a         
          max. resid. fock norm         =  1.103D-03 for orbital      8a         

 End of SCF iterations

   convergence criteria satisfied after    8 iterations


                  ------------------------------------------ 
                 |  total energy      =    -76.27468610476  |
                  ------------------------------------------ 
                 :  kinetic energy    =     75.64173480172  :
                 :  potential energy  =   -151.91642090648  :
                 :  virial theorem    =      1.99170168590  :
                 :  wavefunction norm =      1.00000000000  :
                  .......................................... 


 <geterg> : there is no data group $energy 


 <skperg> : $end is missing 


 orbitals $scfmo  will be written to file mos

    irrep                  1a          2a          3a          4a          5a   
 eigenvalues H        -18.79963    -0.88985    -0.43234    -0.31731    -0.23969
            eV        -511.5680    -24.2142    -11.7646     -8.6345     -6.5223
 occupation              2.0000      2.0000      2.0000      2.0000      2.0000 

    irrep                  6a          7a          8a          9a         10a   
 eigenvalues H         -0.05863     0.06721     0.36212     0.48230     0.82657
            eV          -1.5955      1.8289      9.8539     13.1240     22.4923
 
 
 
 
 ==============================================================================
                           electrostatic moments
 ==============================================================================

 reference point for electrostatic moments:    0.00000   0.00000   0.00000

 
              nuc           elec       ->  total
 ------------------------------------------------------------------------------
                          charge      
 ------------------------------------------------------------------------------
          10.000000     -10.000000       0.000000
 
 ------------------------------------------------------------------------------
                       dipole moment  
 ------------------------------------------------------------------------------
   x     -57.118033      56.770192      -0.347841
   y      -4.636396       4.074458      -0.561938
   z      -1.644458       0.937397      -0.707061
 
   | dipole moment | =     0.9678 a.u. =     2.4600 debye 
 
 ------------------------------------------------------------------------------
                     quadrupole moment
 ------------------------------------------------------------------------------
  xx     327.417462    -328.460463      -1.043001
  yy       4.588119      -8.644413      -4.056295
  zz       4.136810      -7.993420      -3.856611
  xy      28.142128     -24.207060       3.935068
  xz      10.392884      -5.933970       4.458914
  yz       2.684963      -1.580341       1.104622
 
     1/3  trace=      -2.985302
     anisotropy=      10.875601
 
 ==============================================================================
 


    ------------------------------------------------------------------------
         total  cpu-time :   0.22 seconds
         total wall-time :   0.22 seconds
    ------------------------------------------------------------------------

   ****  ridft : all done  ****


    2020-12-01 10:45:04.588 

--- PyADF *** new job *** PyADF ---
 operating system is UNIX !
 hostname is nitrogen02

 ridft (nitrogen02) : TURBOMOLE V7.1 ( 20661 ) 10 Jun 2016 at 08:56:48
 Copyright (C) 2016 TURBOMOLE GmbH, Karlsruhe


    2020-12-01 10:45:04.768 



                                  r i d f t

                        DFT program with RI approximation 
                                for coulomb part 




                                                 
                                 References:     
                                                 
          TURBOMOLE:                             
              R. Ahlrichs, M. Baer, M. Haeser, H. Horn, and
              C. Koelmel
              Electronic structure calculations on workstation
              computers: the program system TURBOMOLE
              Chem. Phys. Lett. 162: 165 (1989)
          Density Functional:                              
              O. Treutler and R. Ahlrichs                      
              Efficient Molecular Numerical Integration Schemes
              J. Chem. Phys. 102: 346 (1995)                   
          Parallel Version:                                
              Performance of parallel TURBOMOLE for Density    
              Functional Calculations                          
              M. v. Arnim and R. Ahlrichs                      
              J. Comp. Chem. 19: 1746 (1998)                   
          RI-J Method:                                     
              Auxiliary Basis Sets to approximate Coulomb      
              Potentials                                       
              Chem. Phys. Lett. 240: 283 (1995)                
              K. Eichkorn, O. Treutler, H. Oehm, M. Haeser     
              and R. Ahlrichs                                  
              Chem. Phys. Lett. 242: 652 (1995)                
                                                           
              Auxiliary Basis Sets for Main Row Atoms and their
              Use to approximate Coulomb Potentials            
              K. Eichkorn, F. Weigend, O. Treutler and         
              R. Ahlrichs                                      
              Theo. Chem. Acc. 97: 119 (1997)                   
                                                           
              Accurate Coulomb-fitting basis sets for H to Rn 
              F. Weigend                                        
              Phys. Chem. Chem. Phys. 8: 1057 (2006)            
                                                           
          Multipole accelerated RI-J (MARI-J):             
              Fast evaluation of the Coulomb potential for     
              electron densities using multipole accelerated   
              resolution of identity approximation             
              M. Sierka, A. Hogekamp and R. Ahlrichs           
              J. Chem. Phys. 118: 9136 (2003)                  
          RI-JK Method:                                     
              A fully direct RI-HF algorithm: Implementation,
              optimised auxiliary basis sets, demonstration of
              accuracy and efficiency                         
              F. Weigend                                      
              Phys. Chem. Chem. Phys. 4: 4285 (2002)           
          Two-component HF and DFT with spin-orbit coupling:  
              Self-consistent treatment of spin-orbit         
              interactions with efficient Hartree-Fock and    
              density functional methods                      
              M. K. Armbruster, F. Weigend, C. van Wüllen and 
              W. Klopper                                      
              Phys. Chem. Chem. Phys. 10: 1748 (2008)         
          Relativistic all-electron 2c calculations           
              An efficient implementation of two-component    
              relativistic exact-decoupling methods for large 
              molecules                                       
              D. Peng, N. Middendorf, F. Weigend, M. Reiher   
              J. Chem. Phys. 138, 184105 (2013)               
                                         


 


              +--------------------------------------------------+
              |      general information about current run       |
              +--------------------------------------------------+

 
 B-P86 functional
 exchange:    LDA + Becke (B88)
 correlation: LDA (VWN) + Perdew (P86)
 A DFT calculation using the RI-J approximation will be carried out.
 Allocatable memory for RI due to $ricore (MB):        2000


              +--------------------------------------------------+
              | Atomic coordinate, charge and isotop information |
              +--------------------------------------------------+

                    atomic coordinates            atom    charge  isotop
         -5.63042319   -0.33216308    0.00103382    o      8.000     0
         -4.85350689    0.38176890   -1.65182084    h      1.000     0
         -6.77681107   -1.64301079    0.90260424    h      1.000     0
 
       center of nuclear mass  :   -5.65109536   -0.36556091   -0.04100102
       center of nuclear charge:   -5.66737035   -0.39185466   -0.07409460

              +--------------------------------------------------+
              |               basis set information              |
              +--------------------------------------------------+

              we will work with the 1s 3p 5d 7f 9g ... basis set
              ...i.e. with spherical basis functions...

   type   atoms  prim   cont   basis
   ---------------------------------------------------------------------------
    o        1     24     14   def2-SVP   [3s2p1d|7s4p1d]
    h        2      7      5   def2-SVP   [2s1p|4s1p]
   ---------------------------------------------------------------------------
   total:    3     38     24
   ---------------------------------------------------------------------------

   total number of primitive shells          :   17
   total number of contracted shells         :   12
   total number of cartesian basis functions :   25
   total number of SCF-basis functions       :   24


 integral neglect threshold       :  0.13E-08
 integral storage threshold THIZE :  0.10E-04
 integral storage threshold THIME :         5

 RI-J AUXILIARY BASIS SET information:

              we will work with the 1s 3p 5d 7f 9g ... basis set
              ...i.e. with spherical basis functions...

   type   atoms  prim   cont   basis
   ---------------------------------------------------------------------------
    o        1     70     49   def2-SVP   [6s4p3d1f1g|12s5p4d2f1g]
    h        2     16     11   def2-SVP   [3s1p1d|5s2p1d]
   ---------------------------------------------------------------------------
   total:    3    102     71
   ---------------------------------------------------------------------------

   total number of primitive shells          :   32
   total number of contracted shells         :   25
   total number of cartesian basis functions :   85
   total number of SCF-basis functions       :   71


 symmetry group of the molecule :   c1 

 the group has the following generators :
   c1(z)

    1 symmetry operations found

 there are 1 real representations :   a   

 maximum number of shells which are related by symmetry :  1


    mo occupation :
   irrep   mo's   occupied
    a       24        5
 
 number of basis functions   :           24
 number of occupied orbitals :            5
 
  
           ------------------
           density functional
           ------------------
 B-P86 functional
 exchange:    LDA + Becke (B88)
 correlation: LDA (VWN) + Perdew (P86)
 iterations will be done with small grid
  
 spherical integration : Lebedev's spherical grid
 spherical gridsize    :           4
    i.e. gridpoints    :         434
 value for diffuse not defined
 radial integration    : Chebyshev 2nd kind (scaling 3)
 radial gridsize       :           6
 integration cells     :           3
 partition function    : becke
 partition sharpness   :           3
  

 biggest AO integral is expected to be     4.776656448
  
           ------------------------
               RI-J - INFORMATION
           ------------------------
 Contributions to RI integral batches: 
  neglected integral batches:           0
  direct contribution:                  0
  memory contribution:          78
 Memory core needed for (P|Q) and Cholesky      1 MByte
 Memory core minimum needed except of (P|Q)     1 MByte
 Total minimum memory core needed (sum)         1 MByte
  
 ****************************************
 Memory allocated for RI-J     1 MByte
 ****************************************
                                            

          ------------------------
          nuclear repulsion energy  :   8.42356831822    
          ------------------------

 
          -----------------
          -S,T+V- integrals
          -----------------

 1e-integrals will be neglected if expon. factor < 0.133678E-09
 
   Difference densities algorithm switched on.
   The maximal number of linear combinations of
   difference densities is          20 .

 DIIS switched on: error vector is FDS-SDF
 Max. Iterations for DIIS is     :   4
 DIIS matrix (see manual) 
    Scaling factor of diagonals  :  1.200
    threshold for scaling factor :  0.000

 scf convergence criterion : increment of total energy < .1000000D-05
                  and increment of one-electron energy < .1000000D-02


 <geterg> : there is no data group $energy 

  MOs are in ASCII format !


 automatic virtual orbital shift switched on 
      shift if e(lumo)-e(homo) < 0.10000000    


 reading orbital data $scfmo  from file mos
 orbital characterization : scfconv=6

 DSCF restart information will be dumped onto file mos


 Starting SCF iterations

          Overall gridpoints after grid construction =          7374

 ITERATION  ENERGY          1e-ENERGY        2e-ENERGY     NORM[dD(SAO)]  TOL
   1  -76.109457024628    -121.01942660     36.486401258    0.000D+00 0.133D-08
                            Exc = -9.26390268260     Coul =  45.7503039408    
                              N = 10.000001147    
                            current damping = 0.700
 
          max. resid. norm for Fia-block=  2.258D-01 for orbital      3a         
          max. resid. fock norm         =  5.910D-01 for orbital     17a         

 ITERATION  ENERGY          1e-ENERGY        2e-ENERGY     NORM[dD(SAO)]  TOL
   2  -76.272566665527    -122.46438746     37.768252480    0.785D+00 0.921D-09
                            Exc = -9.39109739843     Coul =  47.1593498788    
                              N = 9.9999998902    
                            current damping = 0.650
 
          Norm of current diis error: 0.42164    
          max. resid. norm for Fia-block=  1.183D-01 for orbital      4a         
          max. resid. fock norm         =  2.727D-01 for orbital     16a         

 ITERATION  ENERGY          1e-ENERGY        2e-ENERGY     NORM[dD(SAO)]  TOL
   3  -76.310205389448    -121.53093044     36.797156732    0.225D+00 0.720D-09
                            Exc = -9.25043904042     Coul =  46.0475957722    
                              N = 9.9999963583    
                            current damping = 0.600
 
          Norm of current diis error: 0.17321    
          max. resid. norm for Fia-block=  3.756D-02 for orbital      4a         
          max. resid. fock norm         =  1.111D-01 for orbital     15a         

 ITERATION  ENERGY          1e-ENERGY        2e-ENERGY     NORM[dD(SAO)]  TOL
   4  -76.317185259153    -121.87085776     37.130104181    0.812D-01 0.643D-09
                            Exc = -9.29230255518     Coul =  46.4224067359    
                              N = 9.9999966846    
                            current damping = 0.650
 
          Norm of current diis error: 0.50227E-01
          max. resid. norm for Fia-block=  1.446D-02 for orbital      4a         
          max. resid. fock norm         =  3.922D-02 for orbital     15a         

 ITERATION  ENERGY          1e-ENERGY        2e-ENERGY     NORM[dD(SAO)]  TOL
   5  -76.317844631255    -121.86306534     37.121652387    0.441D-02 0.591D-09
                            Exc = -9.29025520533     Coul =  46.4119075926    
                              N = 9.9999963782    
                            current damping = 0.700
 
          Norm of current diis error: 0.19085E-01
          max. resid. norm for Fia-block=  5.742D-03 for orbital      4a         
          max. resid. fock norm         =  1.521D-02 for orbital     15a         
          mo-orthogonalization: Cholesky decomposition

 ITERATION  ENERGY          1e-ENERGY        2e-ENERGY     NORM[dD(SAO)]  TOL
   6  -76.317951299969    -121.86899662     37.127476997    0.107D-02 0.556D-09
                            Exc = -9.29062390135     Coul =  46.4181008987    
                              N = 9.9999963167    
                            current damping = 0.750
 
          Norm of current diis error: 0.79503E-02
          max. resid. norm for Fia-block=  2.367D-03 for orbital      4a         
          max. resid. fock norm         =  6.191D-03 for orbital     15a         

 ITERATION  ENERGY          1e-ENERGY        2e-ENERGY     NORM[dD(SAO)]  TOL
   7  -76.317968581043    -121.86969197     37.128155073    0.469D-04 0.528D-09
                            Exc = -9.29056384709     Coul =  46.4187189200    
                              N = 9.9999962833    
                            current damping = 0.600
 
          Norm of current diis error: 0.34896E-02
          max. resid. norm for Fia-block=  9.839D-04 for orbital      4a         
          max. resid. fock norm         =  2.636D-03 for orbital     15a         

 ITERATION  ENERGY          1e-ENERGY        2e-ENERGY     NORM[dD(SAO)]  TOL
   8  -76.317971958245    -121.87354526     37.132004986    0.609D-04 0.498D-09
                            Exc = -9.29101389548     Coul =  46.4230188814    
                              N = 9.9999962770    
                            current damping = 0.450
 
          Norm of current diis error: 0.14594E-02
          max. resid. norm for Fia-block=  4.259D-04 for orbital      4a         
          max. resid. fock norm         =  9.894D-04 for orbital     15a         

 ENERGY CONVERGED !

          Overall gridpoints after grid construction =         28334

 ITERATION  ENERGY          1e-ENERGY        2e-ENERGY     NORM[dD(SAO)]  TOL
   9  -76.317944260956    -121.87068001     37.129167427    0.535D-05 0.487D-09
                            Exc = -9.29057462835     Coul =  46.4197420558    
                              N = 10.000000042    
                            current damping = 0.500
 
          Norm of current diis error: 0.71832E-03
          max. resid. norm for Fia-block=  1.169D-04 for orbital      4a         
          max. resid. fock norm         =  3.077D-04 for orbital     15a         

 End of SCF iterations

   convergence criteria satisfied after    9 iterations


                  ------------------------------------------ 
                 |  total energy      =    -76.31794426096  |
                  ------------------------------------------ 
                 :  kinetic energy    =     75.47492313651  :
                 :  potential energy  =   -151.79286739747  :
                 :  virial theorem    =      1.98895382819  :
                 :  wavefunction norm =      1.00000000000  :
                  .......................................... 


 <geterg> : there is no data group $energy 


 <skperg> : $end is missing 


 orbitals $scfmo  will be written to file mos

    irrep                  1a          2a          3a          4a          5a   
 eigenvalues H        -18.73551    -0.83115    -0.48028    -0.22360    -0.20857
            eV        -509.8231    -22.6168    -13.0692     -6.0846     -5.6754
 occupation              2.0000      2.0000      2.0000      2.0000      2.0000 

    irrep                  6a          7a          8a          9a         10a   
 eigenvalues H         -0.00732     0.10046     0.39099     0.60725     0.86988
            eV          -0.1992      2.7336     10.6394     16.5243     23.6708
 
 
 
 
 ==============================================================================
                           electrostatic moments
 ==============================================================================

 reference point for electrostatic moments:    0.00000   0.00000   0.00000

 
              nuc           elec       ->  total
 ------------------------------------------------------------------------------
                          charge      
 ------------------------------------------------------------------------------
          10.000000     -10.000000       0.000000
 
 ------------------------------------------------------------------------------
                       dipole moment  
 ------------------------------------------------------------------------------
   x     -56.673703      56.520936      -0.152767
   y      -3.918547       3.671745      -0.246801
   z      -0.740946       0.430314      -0.310632
 
   | dipole moment | =     0.4251 a.u. =     1.0806 debye 
 
 ------------------------------------------------------------------------------
                     quadrupole moment
 ------------------------------------------------------------------------------
  xx     323.095020    -325.731956      -2.636936
  yy       3.727890      -7.765151      -4.037260
  zz       3.543215      -7.071376      -3.528161
  xy      24.243205     -21.748540       2.494665
  xz       1.853779      -1.301035       0.552743
  yz      -2.116350       0.997738      -1.118612
 
     1/3  trace=      -3.400786
     anisotropy=       4.984747
 
 ==============================================================================
 


    ------------------------------------------------------------------------
         total  cpu-time :   0.24 seconds
         total wall-time :   0.24 seconds
    ------------------------------------------------------------------------

   ****  ridft : all done  ****


    2020-12-01 10:45:05.005 

--- PyADF *** new job *** PyADF ---
 operating system is UNIX !
 hostname is nitrogen02

 ridft (nitrogen02) : TURBOMOLE V7.1 ( 20661 ) 10 Jun 2016 at 08:56:48
 Copyright (C) 2016 TURBOMOLE GmbH, Karlsruhe


    2020-12-01 10:45:05.180 



                                  r i d f t

                        DFT program with RI approximation 
                                for coulomb part 




                                                 
                                 References:     
                                                 
          TURBOMOLE:                             
              R. Ahlrichs, M. Baer, M. Haeser, H. Horn, and
              C. Koelmel
              Electronic structure calculations on workstation
              computers: the program system TURBOMOLE
              Chem. Phys. Lett. 162: 165 (1989)
          Density Functional:                              
              O. Treutler and R. Ahlrichs                      
              Efficient Molecular Numerical Integration Schemes
              J. Chem. Phys. 102: 346 (1995)                   
          Parallel Version:                                
              Performance of parallel TURBOMOLE for Density    
              Functional Calculations                          
              M. v. Arnim and R. Ahlrichs                      
              J. Comp. Chem. 19: 1746 (1998)                   
          RI-J Method:                                     
              Auxiliary Basis Sets to approximate Coulomb      
              Potentials                                       
              Chem. Phys. Lett. 240: 283 (1995)                
              K. Eichkorn, O. Treutler, H. Oehm, M. Haeser     
              and R. Ahlrichs                                  
              Chem. Phys. Lett. 242: 652 (1995)                
                                                           
              Auxiliary Basis Sets for Main Row Atoms and their
              Use to approximate Coulomb Potentials            
              K. Eichkorn, F. Weigend, O. Treutler and         
              R. Ahlrichs                                      
              Theo. Chem. Acc. 97: 119 (1997)                   
                                                           
              Accurate Coulomb-fitting basis sets for H to Rn 
              F. Weigend                                        
              Phys. Chem. Chem. Phys. 8: 1057 (2006)            
                                                           
          Multipole accelerated RI-J (MARI-J):             
              Fast evaluation of the Coulomb potential for     
              electron densities using multipole accelerated   
              resolution of identity approximation             
              M. Sierka, A. Hogekamp and R. Ahlrichs           
              J. Chem. Phys. 118: 9136 (2003)                  
          RI-JK Method:                                     
              A fully direct RI-HF algorithm: Implementation,
              optimised auxiliary basis sets, demonstration of
              accuracy and efficiency                         
              F. Weigend                                      
              Phys. Chem. Chem. Phys. 4: 4285 (2002)           
          Two-component HF and DFT with spin-orbit coupling:  
              Self-consistent treatment of spin-orbit         
              interactions with efficient Hartree-Fock and    
              density functional methods                      
              M. K. Armbruster, F. Weigend, C. van Wüllen and 
              W. Klopper                                      
              Phys. Chem. Chem. Phys. 10: 1748 (2008)         
          Relativistic all-electron 2c calculations           
              An efficient implementation of two-component    
              relativistic exact-decoupling methods for large 
              molecules                                       
              D. Peng, N. Middendorf, F. Weigend, M. Reiher   
              J. Chem. Phys. 138, 184105 (2013)               
                                         


 


              +--------------------------------------------------+
              |      general information about current run       |
              +--------------------------------------------------+

 
 B-P86 functional
 exchange:    LDA + Becke (B88)
 correlation: LDA (VWN) + Perdew (P86)
 A DFT calculation using the RI-J approximation will be carried out.
 Allocatable memory for RI due to $ricore (MB):        2000


              +--------------------------------------------------+
              | Atomic coordinate, charge and isotop information |
              +--------------------------------------------------+

                    atomic coordinates            atom    charge  isotop
         -5.60816963   -0.28580165    0.10846043    o      8.000     0
         -5.11285981   -0.12041117   -2.67604984    h      1.000     0
         -6.87063775   -1.87661397    0.22191931    h      1.000     0
 
       center of nuclear mass  :   -5.65109264   -0.36555493   -0.04098664
       center of nuclear charge:   -5.68488546   -0.42834383   -0.15864471

              +--------------------------------------------------+
              |               basis set information              |
              +--------------------------------------------------+

              we will work with the 1s 3p 5d 7f 9g ... basis set
              ...i.e. with spherical basis functions...

   type   atoms  prim   cont   basis
   ---------------------------------------------------------------------------
    o        1     24     14   def2-SVP   [3s2p1d|7s4p1d]
    h        2      7      5   def2-SVP   [2s1p|4s1p]
   ---------------------------------------------------------------------------
   total:    3     38     24
   ---------------------------------------------------------------------------

   total number of primitive shells          :   17
   total number of contracted shells         :   12
   total number of cartesian basis functions :   25
   total number of SCF-basis functions       :   24


 integral neglect threshold       :  0.13E-08
 integral storage threshold THIZE :  0.10E-04
 integral storage threshold THIME :         5

 RI-J AUXILIARY BASIS SET information:

              we will work with the 1s 3p 5d 7f 9g ... basis set
              ...i.e. with spherical basis functions...

   type   atoms  prim   cont   basis
   ---------------------------------------------------------------------------
    o        1     70     49   def2-SVP   [6s4p3d1f1g|12s5p4d2f1g]
    h        2     16     11   def2-SVP   [3s1p1d|5s2p1d]
   ---------------------------------------------------------------------------
   total:    3    102     71
   ---------------------------------------------------------------------------

   total number of primitive shells          :   32
   total number of contracted shells         :   25
   total number of cartesian basis functions :   85
   total number of SCF-basis functions       :   71


 symmetry group of the molecule :   c1 

 the group has the following generators :
   c1(z)

    1 symmetry operations found

 there are 1 real representations :   a   

 maximum number of shells which are related by symmetry :  1


    mo occupation :
   irrep   mo's   occupied
    a       24        5
 
 number of basis functions   :           24
 number of occupied orbitals :            5
 
  
           ------------------
           density functional
           ------------------
 B-P86 functional
 exchange:    LDA + Becke (B88)
 correlation: LDA (VWN) + Perdew (P86)
 iterations will be done with small grid
  
 spherical integration : Lebedev's spherical grid
 spherical gridsize    :           4
    i.e. gridpoints    :         434
 value for diffuse not defined
 radial integration    : Chebyshev 2nd kind (scaling 3)
 radial gridsize       :           6
 integration cells     :           3
 partition function    : becke
 partition sharpness   :           3
  

 biggest AO integral is expected to be     4.776656448
  
           ------------------------
               RI-J - INFORMATION
           ------------------------
 Contributions to RI integral batches: 
  neglected integral batches:           0
  direct contribution:                  0
  memory contribution:          78
 Memory core needed for (P|Q) and Cholesky      1 MByte
[...]

    irrep                  6a          7a          8a          9a         10a   
 eigenvalues H         -0.15353     0.02068     0.38215     0.45584     0.82920
            eV          -4.1778      0.5628     10.3990     12.4042     22.5639
 
 
 
 
 ==============================================================================
                           electrostatic moments
 ==============================================================================

 reference point for electrostatic moments:    0.00000   0.00000   0.00000

 
              nuc           elec       ->  total
 ------------------------------------------------------------------------------
                          charge      
 ------------------------------------------------------------------------------
          10.000000     -10.000000      -0.000000
 
 ------------------------------------------------------------------------------
                       dipole moment  
 ------------------------------------------------------------------------------
   x     -57.397639      57.073091      -0.324548
   y      -4.985690       4.455187      -0.530503
   z      -1.601098       0.904295      -0.696803
 
   | dipole moment | =     0.9340 a.u. =     2.3739 debye 
 
 ------------------------------------------------------------------------------
                     quadrupole moment
 ------------------------------------------------------------------------------
  xx     332.204199    -333.479596      -1.275398
  yy       7.584414     -11.468971      -3.884557
  zz       4.021242      -8.145245      -4.124003
  xy      32.331273     -28.200002       4.131270
  xz      10.392025      -6.061969       4.330057
  yz       2.961405      -1.949058       1.012346
 
     1/3  trace=      -3.094652
     anisotropy=      10.863457
 
 ==============================================================================
 


    ------------------------------------------------------------------------
         total  cpu-time :   0.20 seconds
         total wall-time :   0.20 seconds
    ------------------------------------------------------------------------

   ****  ridft : all done  ****


    2020-12-01 10:45:29.920 

--- PyADF *** new job *** PyADF ---
 operating system is UNIX !
 hostname is nitrogen02

 ridft (nitrogen02) : TURBOMOLE V7.1 ( 20661 ) 10 Jun 2016 at 08:56:48
 Copyright (C) 2016 TURBOMOLE GmbH, Karlsruhe


    2020-12-01 10:45:30.107 



                                  r i d f t

                        DFT program with RI approximation 
                                for coulomb part 




                                                 
                                 References:     
                                                 
          TURBOMOLE:                             
              R. Ahlrichs, M. Baer, M. Haeser, H. Horn, and
              C. Koelmel
              Electronic structure calculations on workstation
              computers: the program system TURBOMOLE
              Chem. Phys. Lett. 162: 165 (1989)
          Density Functional:                              
              O. Treutler and R. Ahlrichs                      
              Efficient Molecular Numerical Integration Schemes
              J. Chem. Phys. 102: 346 (1995)                   
          Parallel Version:                                
              Performance of parallel TURBOMOLE for Density    
              Functional Calculations                          
              M. v. Arnim and R. Ahlrichs                      
              J. Comp. Chem. 19: 1746 (1998)                   
          RI-J Method:                                     
              Auxiliary Basis Sets to approximate Coulomb      
              Potentials                                       
              Chem. Phys. Lett. 240: 283 (1995)                
              K. Eichkorn, O. Treutler, H. Oehm, M. Haeser     
              and R. Ahlrichs                                  
              Chem. Phys. Lett. 242: 652 (1995)                
                                                           
              Auxiliary Basis Sets for Main Row Atoms and their
              Use to approximate Coulomb Potentials            
              K. Eichkorn, F. Weigend, O. Treutler and         
              R. Ahlrichs                                      
              Theo. Chem. Acc. 97: 119 (1997)                   
                                                           
              Accurate Coulomb-fitting basis sets for H to Rn 
              F. Weigend                                        
              Phys. Chem. Chem. Phys. 8: 1057 (2006)            
                                                           
          Multipole accelerated RI-J (MARI-J):             
              Fast evaluation of the Coulomb potential for     
              electron densities using multipole accelerated   
              resolution of identity approximation             
              M. Sierka, A. Hogekamp and R. Ahlrichs           
              J. Chem. Phys. 118: 9136 (2003)                  
          RI-JK Method:                                     
              A fully direct RI-HF algorithm: Implementation,
              optimised auxiliary basis sets, demonstration of
              accuracy and efficiency                         
              F. Weigend                                      
              Phys. Chem. Chem. Phys. 4: 4285 (2002)           
          Two-component HF and DFT with spin-orbit coupling:  
              Self-consistent treatment of spin-orbit         
              interactions with efficient Hartree-Fock and    
              density functional methods                      
              M. K. Armbruster, F. Weigend, C. van Wüllen and 
              W. Klopper                                      
              Phys. Chem. Chem. Phys. 10: 1748 (2008)         
          Relativistic all-electron 2c calculations           
              An efficient implementation of two-component    
              relativistic exact-decoupling methods for large 
              molecules                                       
              D. Peng, N. Middendorf, F. Weigend, M. Reiher   
              J. Chem. Phys. 138, 184105 (2013)               
                                         


 


              +--------------------------------------------------+
              |      general information about current run       |
              +--------------------------------------------------+

 
 B-P86 functional
 exchange:    LDA + Becke (B88)
 correlation: LDA (VWN) + Perdew (P86)
 A DFT calculation using the RI-J approximation will be carried out.
 Allocatable memory for RI due to $ricore (MB):        2000


              +--------------------------------------------------+
              | Atomic coordinate, charge and isotop information |
              +--------------------------------------------------+

                    atomic coordinates            atom    charge  isotop
         -5.59489635   -0.28778641   -0.00447297    o      8.000     0
         -4.83547145    0.40435789   -1.65425840    h      1.000     0
         -7.35866730   -2.36990678    0.99245539    h      1.000     0
 
       center of nuclear mass  :   -5.65109016   -0.36555648   -0.04100075
       center of nuclear charge:   -5.69533095   -0.42678402   -0.06975868

              +--------------------------------------------------+
              |               basis set information              |
              +--------------------------------------------------+

              we will work with the 1s 3p 5d 7f 9g ... basis set
              ...i.e. with spherical basis functions...

   type   atoms  prim   cont   basis
   ---------------------------------------------------------------------------
    o        1     24     14   def2-SVP   [3s2p1d|7s4p1d]
    h        2      7      5   def2-SVP   [2s1p|4s1p]
   ---------------------------------------------------------------------------
   total:    3     38     24
   ---------------------------------------------------------------------------

   total number of primitive shells          :   17
   total number of contracted shells         :   12
   total number of cartesian basis functions :   25
   total number of SCF-basis functions       :   24


 integral neglect threshold       :  0.13E-08
 integral storage threshold THIZE :  0.10E-04
 integral storage threshold THIME :         5

 RI-J AUXILIARY BASIS SET information:

              we will work with the 1s 3p 5d 7f 9g ... basis set
              ...i.e. with spherical basis functions...

   type   atoms  prim   cont   basis
   ---------------------------------------------------------------------------
    o        1     70     49   def2-SVP   [6s4p3d1f1g|12s5p4d2f1g]
    h        2     16     11   def2-SVP   [3s1p1d|5s2p1d]
   ---------------------------------------------------------------------------
   total:    3    102     71
   ---------------------------------------------------------------------------

   total number of primitive shells          :   32
   total number of contracted shells         :   25
   total number of cartesian basis functions :   85
   total number of SCF-basis functions       :   71


 symmetry group of the molecule :   c1 

 the group has the following generators :
   c1(z)

    1 symmetry operations found

 there are 1 real representations :   a   

 maximum number of shells which are related by symmetry :  1


    mo occupation :
   irrep   mo's   occupied
    a       24        5
 
 number of basis functions   :           24
 number of occupied orbitals :            5
 
  
           ------------------
           density functional
           ------------------
 B-P86 functional
 exchange:    LDA + Becke (B88)
 correlation: LDA (VWN) + Perdew (P86)
 iterations will be done with small grid
  
 spherical integration : Lebedev's spherical grid
 spherical gridsize    :           4
    i.e. gridpoints    :         434
 value for diffuse not defined
 radial integration    : Chebyshev 2nd kind (scaling 3)
 radial gridsize       :           6
 integration cells     :           3
 partition function    : becke
 partition sharpness   :           3
  

 biggest AO integral is expected to be     4.776656448
  
           ------------------------
               RI-J - INFORMATION
           ------------------------
 Contributions to RI integral batches: 
  neglected integral batches:           0
  direct contribution:                  0
  memory contribution:          78
 Memory core needed for (P|Q) and Cholesky      1 MByte
 Memory core minimum needed except of (P|Q)     1 MByte
 Total minimum memory core needed (sum)         1 MByte
  
 ****************************************
 Memory allocated for RI-J     1 MByte
 ****************************************
                                            

          ------------------------
          nuclear repulsion energy  :   7.08765432767    
          ------------------------

 
          -----------------
          -S,T+V- integrals
          -----------------

 1e-integrals will be neglected if expon. factor < 0.133678E-09
 
   Difference densities algorithm switched on.
   The maximal number of linear combinations of
   difference densities is          20 .

 DIIS switched on: error vector is FDS-SDF
 Max. Iterations for DIIS is     :   4
 DIIS matrix (see manual) 
    Scaling factor of diagonals  :  1.200
    threshold for scaling factor :  0.000

 scf convergence criterion : increment of total energy < .1000000D-05
                  and increment of one-electron energy < .1000000D-02


 <geterg> : there is no data group $energy 

  MOs are in ASCII format !


 automatic virtual orbital shift switched on 
      shift if e(lumo)-e(homo) < 0.10000000    


 reading orbital data $scfmo  from file mos
 orbital characterization : scfconv=6

 DSCF restart information will be dumped onto file mos


 Starting SCF iterations

          Overall gridpoints after grid construction =          7379

 ITERATION  ENERGY          1e-ENERGY        2e-ENERGY     NORM[dD(SAO)]  TOL
   1  -76.133639473832    -118.56367882     35.342385017    0.000D+00 0.133D-08
                            Exc = -9.13889604662     Coul =  44.4812810641    
                              N = 10.000031047    
                            current damping = 0.700
 
          max. resid. norm for Fia-block=  1.475D-01 for orbital      4a         
          max. resid. fock norm         =  5.519D-01 for orbital     23a         

 ITERATION  ENERGY          1e-ENERGY        2e-ENERGY     NORM[dD(SAO)]  TOL
   2  -76.192056475868    -120.18195473     36.902243922    0.499D+00 0.868D-09
                            Exc = -9.29525868172     Coul =  46.1975026042    
                              N = 10.000030732    
                            current damping = 0.650
 
          Norm of current diis error: 0.43371    
          max. resid. norm for Fia-block=  9.180D-02 for orbital      4a         
          max. resid. fock norm         =  3.256D-01 for orbital     23a         

 ITERATION  ENERGY          1e-ENERGY        2e-ENERGY     NORM[dD(SAO)]  TOL
   3  -76.219451625309    -118.62856453     35.321458576    0.281D+00 0.770D-09
                            Exc = -9.10787286015     Coul =  44.4293314362    
                              N = 10.000028623    
                            current damping = 0.600
 
          Norm of current diis error: 0.20359    
          max. resid. norm for Fia-block=  2.798D-02 for orbital      4a         
          max. resid. fock norm         =  9.737D-02 for orbital     23a         

 ITERATION  ENERGY          1e-ENERGY        2e-ENERGY     NORM[dD(SAO)]  TOL
   4  -76.226675884244    -119.17952326     35.865193048    0.660D-01 0.675D-09
                            Exc = -9.16948221655     Coul =  45.0346752642    
                              N = 10.000029584    
                            current damping = 0.650
 
          Norm of current diis error: 0.36107E-01
          max. resid. norm for Fia-block=  9.442D-03 for orbital      4a         
          max. resid. fock norm         =  3.068D-02 for orbital     23a         

 ITERATION  ENERGY          1e-ENERGY        2e-ENERGY     NORM[dD(SAO)]  TOL
   5  -76.226963779783    -119.20394035     35.889322241    0.111D-01 0.624D-09
                            Exc = -9.17111343351     Coul =  45.0604356749    
                              N = 10.000029496    
                            current damping = 0.500
 
          Norm of current diis error: 0.14690E-01
          max. resid. norm for Fia-block=  4.059D-03 for orbital      4a         
          max. resid. fock norm         =  1.201D-02 for orbital     24a         
          mo-orthogonalization: Cholesky decomposition

 ITERATION  ENERGY          1e-ENERGY        2e-ENERGY     NORM[dD(SAO)]  TOL
   6  -76.227013722600    -119.18264526     35.867977206    0.289D-02 0.591D-09
                            Exc = -9.16872474780     Coul =  45.0367019540    
                              N = 10.000029511    
                            current damping = 0.550
 
          Norm of current diis error: 0.47302E-02
          max. resid. norm for Fia-block=  1.328D-03 for orbital      4a         
          max. resid. fock norm         =  3.889D-03 for orbital     15a         

 ITERATION  ENERGY          1e-ENERGY        2e-ENERGY     NORM[dD(SAO)]  TOL
   7  -76.227019473483    -119.18701986     35.872346063    0.467D-03 0.570D-09
                            Exc = -9.16899476264     Coul =  45.0413408257    
                              N = 10.000029496    
                            current damping = 0.600
 
          Norm of current diis error: 0.17002E-02
          max. resid. norm for Fia-block=  4.635D-04 for orbital      4a         
          max. resid. fock norm         =  1.380D-03 for orbital     24a         

 ENERGY CONVERGED !

          Overall gridpoints after grid construction =         28374

 ITERATION  ENERGY          1e-ENERGY        2e-ENERGY     NORM[dD(SAO)]  TOL
   8  -76.226970650520    -119.18445479     35.869829809    0.546D-04 0.552D-09
                            Exc = -9.16865150214     Coul =  45.0384813113    
                              N = 10.000000189    
                            current damping = 0.650
 
          Norm of current diis error: 0.61285E-03
          max. resid. norm for Fia-block=  1.683D-04 for orbital      4a         
          max. resid. fock norm         =  5.253D-04 for orbital     24a         

 End of SCF iterations

   convergence criteria satisfied after    8 iterations


                  ------------------------------------------ 
                 |  total energy      =    -76.22697065052  |
                  ------------------------------------------ 
                 :  kinetic energy    =     75.36173038726  :
                 :  potential energy  =   -151.58870103778  :
                 :  virial theorem    =      1.98864915848  :
                 :  wavefunction norm =      1.00000000000  :
                  .......................................... 


 <geterg> : there is no data group $energy 


 <skperg> : $end is missing 


 orbitals $scfmo  will be written to file mos

    irrep                  1a          2a          3a          4a          5a   
 eigenvalues H        -18.76691    -0.81249    -0.40764    -0.24200    -0.20744
            eV        -510.6778    -22.1090    -11.0926     -6.5852     -5.6447
 occupation              2.0000      2.0000      2.0000      2.0000      2.0000 

    irrep                  6a          7a          8a          9a         10a   
 eigenvalues H         -0.13968     0.06328     0.38195     0.52594     0.85694
            eV          -3.8009      1.7219     10.3934     14.3117     23.3188
 
 
 
 
 ==============================================================================
                           electrostatic moments
 ==============================================================================

 reference point for electrostatic moments:    0.00000   0.00000   0.00000

 
              nuc           elec       ->  total
 ------------------------------------------------------------------------------
                          charge      
 ------------------------------------------------------------------------------
          10.000000     -10.000000       0.000000
 
 ------------------------------------------------------------------------------
                       dipole moment  
 ------------------------------------------------------------------------------
   x     -56.953310      56.736784      -0.216526
   y      -4.267840       3.941813      -0.326028
   z      -0.697587       0.399272      -0.298315
 
   | dipole moment | =     0.4921 a.u. =     1.2508 debye 
 
 ------------------------------------------------------------------------------
                     quadrupole moment
 ------------------------------------------------------------------------------
  xx     327.954690    -329.775263      -1.820574
  yy       6.442532     -10.087667      -3.645136
  zz       3.721699      -7.675972      -3.954274
  xy      28.365176     -24.899273       3.465902
  xz       0.896177      -0.420708       0.475469
  yz      -3.010641       1.856383      -1.154258
 
     1/3  trace=      -3.139994
     anisotropy=       6.685897
 
 ==============================================================================
 


    ------------------------------------------------------------------------
         total  cpu-time :   0.21 seconds
         total wall-time :   0.22 seconds
    ------------------------------------------------------------------------

   ****  ridft : all done  ****


    2020-12-01 10:45:30.323 

