--- PyADF *** new job *** PyADF ---
 operating system is UNIX !
 hostname is nitrogen02

 ridft (nitrogen02) : TURBOMOLE V7.1 ( 20661 ) 10 Jun 2016 at 08:56:48
 Copyright (C) 2016 TURBOMOLE GmbH, Karlsruhe


    2020-12-01 10:45:13.582 



                                  r i d f t

                        DFT program with RI approximation 
                                for coulomb part 




                                                 
                                 References:     
                                                 
          TURBOMOLE:                             
              R. Ahlrichs, M. Baer, M. Haeser, H. Horn, and
              C. Koelmel
              Electronic structure calculations on workstation
              computers: the program system TURBOMOLE
              Chem. Phys. Lett. 162: 165 (1989)
          Density Functional:                              
              O. Treutler and R. Ahlrichs                      
              Efficient Molecular Numerical Integration Schemes
              J. Chem. Phys. 102: 346 (1995)                   
          Parallel Version:                                
              Performance of parallel TURBOMOLE for Density    
              Functional Calculations                          
              M. v. Arnim and R. Ahlrichs                      
              J. Comp. Chem. 19: 1746 (1998)                   
          RI-J Method:                                     
              Auxiliary Basis Sets to approximate Coulomb      
              Potentials                                       
              Chem. Phys. Lett. 240: 283 (1995)                
              K. Eichkorn, O. Treutler, H. Oehm, M. Haeser     
              and R. Ahlrichs                                  
              Chem. Phys. Lett. 242: 652 (1995)                
                                                           
              Auxiliary Basis Sets for Main Row Atoms and their
              Use to approximate Coulomb Potentials            
              K. Eichkorn, F. Weigend, O. Treutler and         
              R. Ahlrichs                                      
              Theo. Chem. Acc. 97: 119 (1997)                   
                                                           
              Accurate Coulomb-fitting basis sets for H to Rn 
              F. Weigend                                        
              Phys. Chem. Chem. Phys. 8: 1057 (2006)            
                                                           
          Multipole accelerated RI-J (MARI-J):             
              Fast evaluation of the Coulomb potential for     
              electron densities using multipole accelerated   
              resolution of identity approximation             
              M. Sierka, A. Hogekamp and R. Ahlrichs           
              J. Chem. Phys. 118: 9136 (2003)                  
          RI-JK Method:                                     
              A fully direct RI-HF algorithm: Implementation,
              optimised auxiliary basis sets, demonstration of
              accuracy and efficiency                         
              F. Weigend                                      
              Phys. Chem. Chem. Phys. 4: 4285 (2002)           
          Two-component HF and DFT with spin-orbit coupling:  
              Self-consistent treatment of spin-orbit         
              interactions with efficient Hartree-Fock and    
              density functional methods                      
              M. K. Armbruster, F. Weigend, C. van Wüllen and 
              W. Klopper                                      
              Phys. Chem. Chem. Phys. 10: 1748 (2008)         
          Relativistic all-electron 2c calculations           
              An efficient implementation of two-component    
              relativistic exact-decoupling methods for large 
              molecules                                       
              D. Peng, N. Middendorf, F. Weigend, M. Reiher   
              J. Chem. Phys. 138, 184105 (2013)               
                                         


 


              +--------------------------------------------------+
              |      general information about current run       |
              +--------------------------------------------------+

 
 B-P86 functional
 exchange:    LDA + Becke (B88)
 correlation: LDA (VWN) + Perdew (P86)
 A DFT calculation using the RI-J approximation will be carried out.
 Allocatable memory for RI due to $ricore (MB):        2000


              +--------------------------------------------------+
              | Atomic coordinate, charge and isotop information |
              +--------------------------------------------------+

                    atomic coordinates            atom    charge  isotop
         -5.59954063   -0.28834506    0.02755721    o      8.000     0
         -5.37383055   -0.22822391   -1.33236166    h      1.000     0
         -6.74659555   -1.72843438    0.16221144    h      1.000     0
 
       center of nuclear mass  :   -5.65109048   -0.36555518   -0.04099714
       center of nuclear charge:   -5.69167512   -0.42634188   -0.09496925

              +--------------------------------------------------+
              |               basis set information              |
              +--------------------------------------------------+

              we will work with the 1s 3p 5d 7f 9g ... basis set
              ...i.e. with spherical basis functions...

   type   atoms  prim   cont   basis
   ---------------------------------------------------------------------------
    o        1     24     14   def2-SVP   [3s2p1d|7s4p1d]
    h        2      7      5   def2-SVP   [2s1p|4s1p]
   ---------------------------------------------------------------------------
   total:    3     38     24
   ---------------------------------------------------------------------------

   total number of primitive shells          :   17
   total number of contracted shells         :   12
   total number of cartesian basis functions :   25
   total number of SCF-basis functions       :   24


 integral neglect threshold       :  0.13E-08
 integral storage threshold THIZE :  0.10E-04
 integral storage threshold THIME :         5

 RI-J AUXILIARY BASIS SET information:

              we will work with the 1s 3p 5d 7f 9g ... basis set
              ...i.e. with spherical basis functions...

   type   atoms  prim   cont   basis
   ---------------------------------------------------------------------------
    o        1     70     49   def2-SVP   [6s4p3d1f1g|12s5p4d2f1g]
    h        2     16     11   def2-SVP   [3s1p1d|5s2p1d]
   ---------------------------------------------------------------------------
   total:    3    102     71
   ---------------------------------------------------------------------------

   total number of primitive shells          :   32
   total number of contracted shells         :   25
   total number of cartesian basis functions :   85
   total number of SCF-basis functions       :   71


 symmetry group of the molecule :   c1 

 the group has the following generators :
   c1(z)

    1 symmetry operations found

 there are 1 real representations :   a   

 maximum number of shells which are related by symmetry :  1


    mo occupation :
   irrep   mo's   occupied
    a       24        5
 
 number of basis functions   :           24
 number of occupied orbitals :            5
 
  
           ------------------
           density functional
           ------------------
 B-P86 functional
 exchange:    LDA + Becke (B88)
 correlation: LDA (VWN) + Perdew (P86)
 iterations will be done with small grid
  
 spherical integration : Lebedev's spherical grid
 spherical gridsize    :           4
    i.e. gridpoints    :         434
 value for diffuse not defined
 radial integration    : Chebyshev 2nd kind (scaling 3)
 radial gridsize       :           6
 integration cells     :           3
 partition function    : becke
 partition sharpness   :           3
  

 biggest AO integral is expected to be     4.776656448
  
           ------------------------
               RI-J - INFORMATION
           ------------------------
 Contributions to RI integral batches: 
  neglected integral batches:           0
  direct contribution:                  0
  memory contribution:          78
 Memory core needed for (P|Q) and Cholesky      1 MByte
 Memory core minimum needed except of (P|Q)     1 MByte
 Total minimum memory core needed (sum)         1 MByte
  
 ****************************************
 Memory allocated for RI-J     1 MByte
 ****************************************
                                            

          ------------------------
          nuclear repulsion energy  :   10.5277425078    
          ------------------------

 
          -----------------
          -S,T+V- integrals
          -----------------

 1e-integrals will be neglected if expon. factor < 0.133678E-09
 
   Difference densities algorithm switched on.
   The maximal number of linear combinations of
   difference densities is          20 .

 DIIS switched on: error vector is FDS-SDF
 Max. Iterations for DIIS is     :   4
 DIIS matrix (see manual) 
    Scaling factor of diagonals  :  1.200
    threshold for scaling factor :  0.000

 scf convergence criterion : increment of total energy < .1000000D-05
                  and increment of one-electron energy < .1000000D-02


 <geterg> : there is no data group $energy 

  MOs are in ASCII format !


 automatic virtual orbital shift switched on 
      shift if e(lumo)-e(homo) < 0.10000000    


 reading orbital data $scfmo  from file mos
 orbital characterization : expanded
 mo provided and orthogonalized by Cholesky decomposition

 DSCF restart information will be dumped onto file mos


 Starting SCF iterations

          Overall gridpoints after grid construction =          7360

 ITERATION  ENERGY          1e-ENERGY        2e-ENERGY     NORM[dD(SAO)]  TOL
   1  -76.003662742468    -125.81215001     39.280744755    0.000D+00 0.133D-08
                            Exc = -9.53718896931     Coul =  48.8179337246    
                              N = 9.9999860566    
                            current damping = 0.700
 
          max. resid. norm for Fia-block=  3.414D-01 for orbital      1a         
          max. resid. fock norm         =  1.341D+00 for orbital     22a         

 ITERATION  ENERGY          1e-ENERGY        2e-ENERGY     NORM[dD(SAO)]  TOL
   2  -76.215770906010    -125.13777207     38.394258656    0.564D+00 0.886D-09
                            Exc = -9.43724096143     Coul =  47.8314996171    
                              N = 9.9999864074    
                            current damping = 0.650
 
          Norm of current diis error: 0.63019    
          max. resid. norm for Fia-block=  1.720D-01 for orbital      1a         
          max. resid. fock norm         =  1.748D-01 for orbital      1a         

 ITERATION  ENERGY          1e-ENERGY        2e-ENERGY     NORM[dD(SAO)]  TOL
   3  -76.252288761936    -125.40306161     38.623030337    0.166D+00 0.665D-09
                            Exc = -9.49016854676     Coul =  48.1131988840    
                              N = 9.9999868740    
                            current damping = 0.600
 
          Norm of current diis error: 0.27968    
          max. resid. norm for Fia-block=  6.823D-02 for orbital      1a         
          max. resid. fock norm         =  6.993D-02 for orbital      1a         

 ITERATION  ENERGY          1e-ENERGY        2e-ENERGY     NORM[dD(SAO)]  TOL
   4  -76.260927575849    -125.18726243     38.398592343    0.677D-01 0.575D-09
                            Exc = -9.46981248362     Coul =  47.8684048262    
                              N = 9.9999867770    
                            current damping = 0.650
 
          Norm of current diis error: 0.10243    
          max. resid. norm for Fia-block=  2.680D-02 for orbital      1a         
          max. resid. fock norm         =  2.717D-02 for orbital      1a         

 ITERATION  ENERGY          1e-ENERGY        2e-ENERGY     NORM[dD(SAO)]  TOL
   5  -76.262202760471    -125.29263892     38.502693652    0.150D-01 0.536D-09
                            Exc = -9.48845918062     Coul =  47.9911528329    
                              N = 9.9999869347    
                            current damping = 0.700
 
          Norm of current diis error: 0.43338E-01
          max. resid. norm for Fia-block=  1.026D-02 for orbital      1a         
          max. resid. fock norm         =  1.054D-02 for orbital      1a         
          mo-orthogonalization: Cholesky decomposition

 ITERATION  ENERGY          1e-ENERGY        2e-ENERGY     NORM[dD(SAO)]  TOL
   6  -76.262437323083    -125.25477775     38.464597923    0.205D-02 0.511D-09
                            Exc = -9.48489020005     Coul =  47.9494881229    
                              N = 9.9999869173    
                            current damping = 0.750
 
          Norm of current diis error: 0.16024E-01
          max. resid. norm for Fia-block=  4.346D-03 for orbital      1a         
          max. resid. fock norm         =  4.417D-03 for orbital      1a         

 ITERATION  ENERGY          1e-ENERGY        2e-ENERGY     NORM[dD(SAO)]  TOL
   7  -76.262470668330    -125.26162091     38.471407731    0.297D-03 0.493D-09
                            Exc = -9.48648121207     Coul =  47.9578889431    
                              N = 9.9999869275    
                            current damping = 0.800
 
          Norm of current diis error: 0.69015E-02
          max. resid. norm for Fia-block=  1.842D-03 for orbital      1a         
          max. resid. fock norm         =  1.880D-03 for orbital      1a         

 ITERATION  ENERGY          1e-ENERGY        2e-ENERGY     NORM[dD(SAO)]  TOL
   8  -76.262476847023    -125.26071074     38.470491383    0.236D-04 0.478D-09
                            Exc = -9.48663073636     Coul =  47.9571221191    
                              N = 9.9999869287    
                            current damping = 0.850
 
          Norm of current diis error: 0.30209E-02
          max. resid. norm for Fia-block=  8.244D-04 for orbital      1a         
          max. resid. fock norm         =  8.393D-04 for orbital      1a         

 ENERGY CONVERGED !

          Overall gridpoints after grid construction =         28284

 ITERATION  ENERGY          1e-ENERGY        2e-ENERGY     NORM[dD(SAO)]  TOL
   9  -76.262468733866    -125.26163938     38.471428136    0.748D-05 0.463D-09
                            Exc = -9.48686624891     Coul =  47.9582943849    
                              N = 9.9999999805    
                            current damping = 0.900
 
          Norm of current diis error: 0.14035E-02
          max. resid. norm for Fia-block=  3.742D-04 for orbital      1a         
          max. resid. fock norm         =  3.830D-04 for orbital      1a         

 End of SCF iterations

   convergence criteria satisfied after    9 iterations


                  ------------------------------------------ 
                 |  total energy      =    -76.26246873387  |
                  ------------------------------------------ 
                 :  kinetic energy    =     76.41632880436  :
                 :  potential energy  =   -152.67879753822  :
                 :  virial theorem    =      2.00201750708  :
                 :  wavefunction norm =      1.00000000000  :
                  .......................................... 


 <geterg> : there is no data group $energy 


 <skperg> : $end is missing 


 orbitals $scfmo  will be written to file mos

    irrep                  1a          2a          3a          4a          5a   
 eigenvalues H        -18.74053    -0.96282    -0.49604    -0.32102    -0.24469
            eV        -509.9597    -26.1999    -13.4981     -8.7356     -6.6584
 occupation              2.0000      2.0000      2.0000      2.0000      2.0000 

    irrep                  6a          7a          8a          9a         10a   
 eigenvalues H          0.04436     0.14386     0.52201     0.79261     0.85106
            eV           1.2070      3.9147     14.2047     21.5682     23.1586
 
 
 
 
 ==============================================================================
                           electrostatic moments
 ==============================================================================

 reference point for electrostatic moments:    0.00000   0.00000   0.00000

 
              nuc           elec       ->  total
 ------------------------------------------------------------------------------
                          charge      
 ------------------------------------------------------------------------------
          10.000000     -10.000000       0.000000
 
 ------------------------------------------------------------------------------
                       dipole moment  
 ------------------------------------------------------------------------------
   x     -56.916751      56.610027      -0.306724
   y      -4.263419       3.786726      -0.476693
   z      -0.949693       0.438576      -0.511117
 
   | dipole moment | =     0.7633 a.u. =     1.9400 debye 
 
 ------------------------------------------------------------------------------
                     quadrupole moment
 ------------------------------------------------------------------------------
  xx     325.233449    -326.178787      -0.945338
  yy       3.704715      -7.498783      -3.794069
  zz       1.807575      -5.799288      -3.991713
  xy      25.804284     -22.276320       3.527963
  xz       4.831049      -2.256995       2.574054
  yz      -0.039863      -0.005253      -0.045116
 
     1/3  trace=      -2.910373
     anisotropy=       8.120364
 
 ==============================================================================
 


    ------------------------------------------------------------------------
         total  cpu-time :   0.23 seconds
         total wall-time :   0.24 seconds
    ------------------------------------------------------------------------

   ****  ridft : all done  ****


    2020-12-01 10:45:13.817 

--- PyADF *** new job *** PyADF ---
 operating system is UNIX !
 hostname is nitrogen02

 ridft (nitrogen02) : TURBOMOLE V7.1 ( 20661 ) 10 Jun 2016 at 08:56:48
 Copyright (C) 2016 TURBOMOLE GmbH, Karlsruhe


    2020-12-01 10:45:14.047 



                                  r i d f t

                        DFT program with RI approximation 
                                for coulomb part 




                                                 
                                 References:     
                                                 
          TURBOMOLE:                             
              R. Ahlrichs, M. Baer, M. Haeser, H. Horn, and
              C. Koelmel
              Electronic structure calculations on workstation
              computers: the program system TURBOMOLE
              Chem. Phys. Lett. 162: 165 (1989)
          Density Functional:                              
              O. Treutler and R. Ahlrichs                      
              Efficient Molecular Numerical Integration Schemes
              J. Chem. Phys. 102: 346 (1995)                   
          Parallel Version:                                
              Performance of parallel TURBOMOLE for Density    
              Functional Calculations                          
              M. v. Arnim and R. Ahlrichs                      
              J. Comp. Chem. 19: 1746 (1998)                   
          RI-J Method:                                     
              Auxiliary Basis Sets to approximate Coulomb      
              Potentials                                       
              Chem. Phys. Lett. 240: 283 (1995)                
              K. Eichkorn, O. Treutler, H. Oehm, M. Haeser     
              and R. Ahlrichs                                  
              Chem. Phys. Lett. 242: 652 (1995)                
                                                           
              Auxiliary Basis Sets for Main Row Atoms and their
              Use to approximate Coulomb Potentials            
              K. Eichkorn, F. Weigend, O. Treutler and         
              R. Ahlrichs                                      
              Theo. Chem. Acc. 97: 119 (1997)                   
                                                           
              Accurate Coulomb-fitting basis sets for H to Rn 
              F. Weigend                                        
              Phys. Chem. Chem. Phys. 8: 1057 (2006)            
                                                           
          Multipole accelerated RI-J (MARI-J):             
              Fast evaluation of the Coulomb potential for     
              electron densities using multipole accelerated   
              resolution of identity approximation             
              M. Sierka, A. Hogekamp and R. Ahlrichs           
              J. Chem. Phys. 118: 9136 (2003)                  
          RI-JK Method:                                     
              A fully direct RI-HF algorithm: Implementation,
              optimised auxiliary basis sets, demonstration of
              accuracy and efficiency                         
              F. Weigend                                      
              Phys. Chem. Chem. Phys. 4: 4285 (2002)           
          Two-component HF and DFT with spin-orbit coupling:  
              Self-consistent treatment of spin-orbit         
              interactions with efficient Hartree-Fock and    
              density functional methods                      
              M. K. Armbruster, F. Weigend, C. van Wüllen and 
              W. Klopper                                      
              Phys. Chem. Chem. Phys. 10: 1748 (2008)         
          Relativistic all-electron 2c calculations           
              An efficient implementation of two-component    
              relativistic exact-decoupling methods for large 
              molecules                                       
              D. Peng, N. Middendorf, F. Weigend, M. Reiher   
              J. Chem. Phys. 138, 184105 (2013)               
                                         


 


              +--------------------------------------------------+
              |      general information about current run       |
              +--------------------------------------------------+

 
 B-P86 functional
 exchange:    LDA + Becke (B88)
 correlation: LDA (VWN) + Perdew (P86)
 A DFT calculation using the RI-J approximation will be carried out.
 Allocatable memory for RI due to $ricore (MB):        2000


              +--------------------------------------------------+
              | Atomic coordinate, charge and isotop information |
              +--------------------------------------------------+

                    atomic coordinates            atom    charge  isotop
         -5.60691548   -0.29331821    0.05401669    o      8.000     0
         -5.29314448   -0.19686327   -1.75958119    h      1.000     0
         -6.71024590   -1.68086568    0.16950153    h      1.000     0
 
       center of nuclear mass  :   -5.65109184   -0.36555568   -0.04099384
       center of nuclear charge:   -5.68587142   -0.42242746   -0.11579461

              +--------------------------------------------------+
              |               basis set information              |
              +--------------------------------------------------+

              we will work with the 1s 3p 5d 7f 9g ... basis set
              ...i.e. with spherical basis functions...

   type   atoms  prim   cont   basis
   ---------------------------------------------------------------------------
    o        1     24     14   def2-SVP   [3s2p1d|7s4p1d]
    h        2      7      5   def2-SVP   [2s1p|4s1p]
   ---------------------------------------------------------------------------
   total:    3     38     24
   ---------------------------------------------------------------------------

   total number of primitive shells          :   17
   total number of contracted shells         :   12
   total number of cartesian basis functions :   25
   total number of SCF-basis functions       :   24


 integral neglect threshold       :  0.13E-08
 integral storage threshold THIZE :  0.10E-04
 integral storage threshold THIME :         5

 RI-J AUXILIARY BASIS SET information:

              we will work with the 1s 3p 5d 7f 9g ... basis set
              ...i.e. with spherical basis functions...

   type   atoms  prim   cont   basis
   ---------------------------------------------------------------------------
    o        1     70     49   def2-SVP   [6s4p3d1f1g|12s5p4d2f1g]
    h        2     16     11   def2-SVP   [3s1p1d|5s2p1d]
   ---------------------------------------------------------------------------
   total:    3    102     71
   ---------------------------------------------------------------------------

   total number of primitive shells          :   32
   total number of contracted shells         :   25
   total number of cartesian basis functions :   85
   total number of SCF-basis functions       :   71


 symmetry group of the molecule :   c1 

 the group has the following generators :
   c1(z)

    1 symmetry operations found

 there are 1 real representations :   a   

 maximum number of shells which are related by symmetry :  1


    mo occupation :
   irrep   mo's   occupied
    a       24        5
 
 number of basis functions   :           24
 number of occupied orbitals :            5
 
  
           ------------------
           density functional
           ------------------
 B-P86 functional
 exchange:    LDA + Becke (B88)
 correlation: LDA (VWN) + Perdew (P86)
 iterations will be done with small grid
  
 spherical integration : Lebedev's spherical grid
 spherical gridsize    :           4
    i.e. gridpoints    :         434
 value for diffuse not defined
 radial integration    : Chebyshev 2nd kind (scaling 3)
 radial gridsize       :           6
 integration cells     :           3
 partition function    : becke
 partition sharpness   :           3
  

 biggest AO integral is expected to be     4.776656448
  
           ------------------------
               RI-J - INFORMATION
           ------------------------
 Contributions to RI integral batches: 
  neglected integral batches:           0
  direct contribution:                  0
  memory contribution:          78
 Memory core needed for (P|Q) and Cholesky      1 MByte
 Memory core minimum needed except of (P|Q)     1 MByte
 Total minimum memory core needed (sum)         1 MByte
  
 ****************************************
 Memory allocated for RI-J     1 MByte
 ****************************************
                                            

          ------------------------
          nuclear repulsion energy  :   9.19889217700    
          ------------------------

 
          -----------------
          -S,T+V- integrals
          -----------------

 1e-integrals will be neglected if expon. factor < 0.133678E-09
 
   Difference densities algorithm switched on.
   The maximal number of linear combinations of
   difference densities is          20 .

 DIIS switched on: error vector is FDS-SDF
 Max. Iterations for DIIS is     :   4
 DIIS matrix (see manual) 
    Scaling factor of diagonals  :  1.200
    threshold for scaling factor :  0.000

 scf convergence criterion : increment of total energy < .1000000D-05
                  and increment of one-electron energy < .1000000D-02


 <geterg> : there is no data group $energy 

  MOs are in ASCII format !


 automatic virtual orbital shift switched on 
      shift if e(lumo)-e(homo) < 0.10000000    


 reading orbital data $scfmo  from file mos
 orbital characterization : scfconv=6

 DSCF restart information will be dumped onto file mos


 Starting SCF iterations

          Overall gridpoints after grid construction =          7368

 ITERATION  ENERGY          1e-ENERGY        2e-ENERGY     NORM[dD(SAO)]  TOL
   1  -76.339030644186    -123.27044731     37.732524491    0.000D+00 0.133D-08
                            Exc = -9.39162892904     Coul =  47.1241534198    
                              N = 9.9999841581    
                            current damping = 0.700
 
          max. resid. norm for Fia-block=  9.835D-02 for orbital      2a         
          max. resid. fock norm         =  3.151D-01 for orbital     24a         

 ITERATION  ENERGY          1e-ENERGY        2e-ENERGY     NORM[dD(SAO)]  TOL
   2  -76.358409092397    -123.00087827     37.443577001    0.216D+00 0.855D-09
                            Exc = -9.35045444999     Coul =  46.7940314513    
                              N = 9.9999841406    
                            current damping = 0.650
 
          Norm of current diis error: 0.14370    
          max. resid. norm for Fia-block=  4.145D-02 for orbital      2a         
          max. resid. fock norm         =  1.475D-01 for orbital      9a         

 ITERATION  ENERGY          1e-ENERGY        2e-ENERGY     NORM[dD(SAO)]  TOL
   3  -76.361470632557    -123.21521950     37.654856689    0.612D-01 0.673D-09
                            Exc = -9.37842242711     Coul =  47.0332791165    
                              N = 9.9999842788    
                            current damping = 0.600
 
          Norm of current diis error: 0.73664E-01
          max. resid. norm for Fia-block=  1.572D-02 for orbital      3a         
          max. resid. fock norm         =  6.665D-02 for orbital     19a         

 ITERATION  ENERGY          1e-ENERGY        2e-ENERGY     NORM[dD(SAO)]  TOL
   4  -76.362291240967    -123.06284788     37.501664464    0.204D-01 0.620D-09
                            Exc = -9.35794854106     Coul =  46.8596130051    
                              N = 9.9999842685    
                            current damping = 0.650
 
          Norm of current diis error: 0.25123E-01
          max. resid. norm for Fia-block=  5.749D-03 for orbital      2a         
          max. resid. fock norm         =  2.466D-02 for orbital     18a         

 ITERATION  ENERGY          1e-ENERGY        2e-ENERGY     NORM[dD(SAO)]  TOL
   5  -76.362380895975    -123.08483930     37.523566229    0.273D-02 0.585D-09
                            Exc = -9.36085775583     Coul =  46.8844239849    
                              N = 9.9999842839    
                            current damping = 0.700
 
          Norm of current diis error: 0.81153E-02
          max. resid. norm for Fia-block=  2.147D-03 for orbital      2a         
          max. resid. fock norm         =  9.202D-03 for orbital     18a         
          mo-orthogonalization: Cholesky decomposition

 ITERATION  ENERGY          1e-ENERGY        2e-ENERGY     NORM[dD(SAO)]  TOL
   6  -76.362392255900    -123.08607117     37.524786737    0.194D-03 0.556D-09
                            Exc = -9.36101422262     Coul =  46.8858009596    
                              N = 9.9999842899    
                            current damping = 0.550
 
          Norm of current diis error: 0.32887E-02
          max. resid. norm for Fia-block=  8.898D-04 for orbital      2a         
          max. resid. fock norm         =  3.731D-03 for orbital     18a         

 ENERGY CONVERGED !

          Overall gridpoints after grid construction =         28301

 ITERATION  ENERGY          1e-ENERGY        2e-ENERGY     NORM[dD(SAO)]  TOL
   7  -76.362393066205    -123.08664587     37.525360626    0.273D-04 0.531D-09
                            Exc = -9.36109102491     Coul =  46.8864516511    
                              N = 10.000000066    
                            current damping = 0.400
 
          Norm of current diis error: 0.11761E-02
          max. resid. norm for Fia-block=  3.063D-04 for orbital      1a         
          max. resid. fock norm         =  1.298D-03 for orbital     18a         

 End of SCF iterations

   convergence criteria satisfied after    7 iterations


                  ------------------------------------------ 
                 |  total energy      =    -76.36239306620  |
                  ------------------------------------------ 
                 :  kinetic energy    =     75.84013530188  :
                 :  potential energy  =   -152.20252836809  :
                 :  virial theorem    =      1.99316079888  :
                 :  wavefunction norm =      1.00000000000  :
                  .......................................... 


 <geterg> : there is no data group $energy 


 <skperg> : $end is missing 


 orbitals $scfmo  will be written to file mos

    irrep                  1a          2a          3a          4a          5a   
 eigenvalues H        -18.75902    -0.89831    -0.46081    -0.31416    -0.23432
            eV        -510.4630    -24.4444    -12.5394     -8.5488     -6.3763
 occupation              2.0000      2.0000      2.0000      2.0000      2.0000 

    irrep                  6a          7a          8a          9a         10a   
 eigenvalues H          0.03375     0.11182     0.51487     0.58929     0.86250
            eV           0.9184      3.0427     14.0105     16.0355     23.4699
 
 
 
 
 ==============================================================================
                           electrostatic moments
 ==============================================================================

 reference point for electrostatic moments:    0.00000   0.00000   0.00000

 
              nuc           elec       ->  total
 ------------------------------------------------------------------------------
                          charge      
 ------------------------------------------------------------------------------
          10.000000     -10.000000      -0.000000
 
 ------------------------------------------------------------------------------
                       dipole moment  
 ------------------------------------------------------------------------------
   x     -56.858714      56.582603      -0.276111
   y      -4.224275       3.776134      -0.448141
   z      -1.157946       0.584229      -0.573717
 
   | dipole moment | =     0.7786 a.u. =     1.9790 debye 
 
 ------------------------------------------------------------------------------
                     quadrupole moment
 ------------------------------------------------------------------------------
  xx     324.544788    -326.017059      -1.472270
  yy       3.552349      -7.576362      -4.024013
  zz       3.148199      -6.891594      -3.743395
  xy      25.477931     -22.145925       3.332006
  xz       5.753384      -2.908850       2.844534
  yz      -0.065265       0.007019      -0.058246
 
     1/3  trace=      -3.079893
     anisotropy=       7.966502
 
 ==============================================================================
 


    ------------------------------------------------------------------------
         total  cpu-time :   0.20 seconds
         total wall-time :   0.20 seconds
    ------------------------------------------------------------------------

   ****  ridft : all done  ****


    2020-12-01 10:45:14.248 

--- PyADF *** new job *** PyADF ---
 operating system is UNIX !
 hostname is nitrogen02

 ridft (nitrogen02) : TURBOMOLE V7.1 ( 20661 ) 10 Jun 2016 at 08:56:48
 Copyright (C) 2016 TURBOMOLE GmbH, Karlsruhe


    2020-12-01 10:45:14.426 



                                  r i d f t

                        DFT program with RI approximation 
                                for coulomb part 




                                                 
                                 References:     
                                                 
          TURBOMOLE:                             
              R. Ahlrichs, M. Baer, M. Haeser, H. Horn, and
              C. Koelmel
              Electronic structure calculations on workstation
              computers: the program system TURBOMOLE
              Chem. Phys. Lett. 162: 165 (1989)
          Density Functional:                              
              O. Treutler and R. Ahlrichs                      
              Efficient Molecular Numerical Integration Schemes
              J. Chem. Phys. 102: 346 (1995)                   
          Parallel Version:                                
              Performance of parallel TURBOMOLE for Density    
              Functional Calculations                          
              M. v. Arnim and R. Ahlrichs                      
              J. Comp. Chem. 19: 1746 (1998)                   
          RI-J Method:                                     
              Auxiliary Basis Sets to approximate Coulomb      
              Potentials                                       
              Chem. Phys. Lett. 240: 283 (1995)                
              K. Eichkorn, O. Treutler, H. Oehm, M. Haeser     
              and R. Ahlrichs                                  
              Chem. Phys. Lett. 242: 652 (1995)                
                                                           
              Auxiliary Basis Sets for Main Row Atoms and their
              Use to approximate Coulomb Potentials            
              K. Eichkorn, F. Weigend, O. Treutler and         
              R. Ahlrichs                                      
              Theo. Chem. Acc. 97: 119 (1997)                   
                                                           
              Accurate Coulomb-fitting basis sets for H to Rn 
              F. Weigend                                        
              Phys. Chem. Chem. Phys. 8: 1057 (2006)            
                                                           
          Multipole accelerated RI-J (MARI-J):             
              Fast evaluation of the Coulomb potential for     
              electron densities using multipole accelerated   
              resolution of identity approximation             
              M. Sierka, A. Hogekamp and R. Ahlrichs           
              J. Chem. Phys. 118: 9136 (2003)                  
          RI-JK Method:                                     
              A fully direct RI-HF algorithm: Implementation,
              optimised auxiliary basis sets, demonstration of
              accuracy and efficiency                         
              F. Weigend                                      
              Phys. Chem. Chem. Phys. 4: 4285 (2002)           
          Two-component HF and DFT with spin-orbit coupling:  
              Self-consistent treatment of spin-orbit         
              interactions with efficient Hartree-Fock and    
              density functional methods                      
              M. K. Armbruster, F. Weigend, C. van Wüllen and 
              W. Klopper                                      
              Phys. Chem. Chem. Phys. 10: 1748 (2008)         
          Relativistic all-electron 2c calculations           
              An efficient implementation of two-component    
              relativistic exact-decoupling methods for large 
              molecules                                       
              D. Peng, N. Middendorf, F. Weigend, M. Reiher   
              J. Chem. Phys. 138, 184105 (2013)               
                                         


 


              +--------------------------------------------------+
              |      general information about current run       |
              +--------------------------------------------------+

 
 B-P86 functional
 exchange:    LDA + Becke (B88)
 correlation: LDA (VWN) + Perdew (P86)
 A DFT calculation using the RI-J approximation will be carried out.
 Allocatable memory for RI due to $ricore (MB):        2000


              +--------------------------------------------------+
              | Atomic coordinate, charge and isotop information |
              +--------------------------------------------------+

                    atomic coordinates            atom    charge  isotop
         -5.58337562   -0.25615705    0.09669883    o      8.000     0
         -5.65066185   -0.66755153   -1.84804420    h      1.000     0
         -6.72631151   -1.79994647   -0.41941874    h      1.000     0
 
       center of nuclear mass  :   -5.65108833   -0.36555086   -0.04098793
       center of nuclear charge:   -5.70439783   -0.45167544   -0.14938723

              +--------------------------------------------------+
              |               basis set information              |
              +--------------------------------------------------+

              we will work with the 1s 3p 5d 7f 9g ... basis set
              ...i.e. with spherical basis functions...

   type   atoms  prim   cont   basis
   ---------------------------------------------------------------------------
    o        1     24     14   def2-SVP   [3s2p1d|7s4p1d]
    h        2      7      5   def2-SVP   [2s1p|4s1p]
   ---------------------------------------------------------------------------
   total:    3     38     24
   ---------------------------------------------------------------------------

   total number of primitive shells          :   17
   total number of contracted shells         :   12
   total number of cartesian basis functions :   25
   total number of SCF-basis functions       :   24


 integral neglect threshold       :  0.13E-08
 integral storage threshold THIZE :  0.10E-04
 integral storage threshold THIME :         5

 RI-J AUXILIARY BASIS SET information:

              we will work with the 1s 3p 5d 7f 9g ... basis set
              ...i.e. with spherical basis functions...

   type   atoms  prim   cont   basis
   ---------------------------------------------------------------------------
    o        1     70     49   def2-SVP   [6s4p3d1f1g|12s5p4d2f1g]
    h        2     16     11   def2-SVP   [3s1p1d|5s2p1d]
   ---------------------------------------------------------------------------
   total:    3    102     71
   ---------------------------------------------------------------------------

   total number of primitive shells          :   32
   total number of contracted shells         :   25
   total number of cartesian basis functions :   85
   total number of SCF-basis functions       :   71


 symmetry group of the molecule :   c1 

 the group has the following generators :
   c1(z)

    1 symmetry operations found

 there are 1 real representations :   a   

 maximum number of shells which are related by symmetry :  1


    mo occupation :
   irrep   mo's   occupied
    a       24        5
 
 number of basis functions   :           24
 number of occupied orbitals :            5
 
  
           ------------------
           density functional
           ------------------
 B-P86 functional
 exchange:    LDA + Becke (B88)
 correlation: LDA (VWN) + Perdew (P86)
 iterations will be done with small grid
  
 spherical integration : Lebedev's spherical grid
 spherical gridsize    :           4
    i.e. gridpoints    :         434
 value for diffuse not defined
 radial integration    : Chebyshev 2nd kind (scaling 3)
 radial gridsize       :           6
 integration cells     :           3
 partition function    : becke
 partition sharpness   :           3
  

 biggest AO integral is expected to be     4.776656448
  
           ------------------------
               RI-J - INFORMATION
           ------------------------
 Contributions to RI integral batches: 
  neglected integral batches:           0
  direct contribution:                  0
  memory contribution:          78
 Memory core needed for (P|Q) and Cholesky      1 MByte
 Memory core minimum needed except of (P|Q)     1 MByte
 Total minimum memory core needed (sum)         1 MByte
  
 ****************************************
 Memory allocated for RI-J     1 MByte
 ****************************************
                                            

          ------------------------
          nuclear repulsion energy  :   8.51692558484    
          ------------------------

 
          -----------------
          -S,T+V- integrals
          -----------------

 1e-integrals will be neglected if expon. factor < 0.133678E-09
 
   Difference densities algorithm switched on.
   The maximal number of linear combinations of
   difference densities is          20 .

 DIIS switched on: error vector is FDS-SDF
 Max. Iterations for DIIS is     :   4
 DIIS matrix (see manual) 
    Scaling factor of diagonals  :  1.200
    threshold for scaling factor :  0.000

 scf convergence criterion : increment of total energy < .1000000D-05
                  and increment of one-electron energy < .1000000D-02


 <geterg> : there is no data group $energy 

  MOs are in ASCII format !


 automatic virtual orbital shift switched on 
      shift if e(lumo)-e(homo) < 0.10000000    


 reading orbital data $scfmo  from file mos
 orbital characterization : scfconv=6

 DSCF restart information will be dumped onto file mos


 Starting SCF iterations

          Overall gridpoints after grid construction =          7376

 ITERATION  ENERGY          1e-ENERGY        2e-ENERGY     NORM[dD(SAO)]  TOL
   1  -76.284858371924    -121.99916394     37.197379983    0.000D+00 0.133D-08
                            Exc = -9.32904932181     Coul =  46.5264293050    
                              N = 9.9999726201    
                            current damping = 0.700
 
          max. resid. norm for Fia-block=  9.775D-02 for orbital      3a         
          max. resid. fock norm         =  4.291D-01 for orbital     23a         

 ITERATION  ENERGY          1e-ENERGY        2e-ENERGY     NORM[dD(SAO)]  TOL
   2  -76.313188332166    -121.46976126     36.639647338    0.292D+00 0.850D-09
                            Exc = -9.25585174321     Coul =  45.8954990815    
                              N = 9.9999736345    
                            current damping = 0.650
 
          Norm of current diis error: 0.17655    
          max. resid. norm for Fia-block=  4.350D-02 for orbital      3a         
          max. resid. fock norm         =  1.884D-01 for orbital     14a         

 ITERATION  ENERGY          1e-ENERGY        2e-ENERGY     NORM[dD(SAO)]  TOL
   3  -76.318426352581    -121.87125039     37.035898449    0.107D+00 0.691D-09
                            Exc = -9.30659173095     Coul =  46.3424901804    
                              N = 9.9999741452    
                            current damping = 0.600
 
          Norm of current diis error: 0.99120E-01
          max. resid. norm for Fia-block=  1.905D-02 for orbital      3a         
          max. resid. fock norm         =  5.778D-02 for orbital     14a         

 ITERATION  ENERGY          1e-ENERGY        2e-ENERGY     NORM[dD(SAO)]  TOL
   4  -76.320087202024    -121.67570474     36.838691954    0.190D-01 0.624D-09
                            Exc = -9.28153177189     Coul =  46.1202237260    
                              N = 9.9999742934    
                            current damping = 0.650
 
          Norm of current diis error: 0.21131E-01
          max. resid. norm for Fia-block=  6.188D-03 for orbital      4a         
          max. resid. fock norm         =  2.131D-02 for orbital      9a         

 ITERATION  ENERGY          1e-ENERGY        2e-ENERGY     NORM[dD(SAO)]  TOL
   5  -76.320208281586    -121.67264250     36.835508636    0.245D-02 0.578D-09
                            Exc = -9.28097740642     Coul =  46.1164860419    
                              N = 9.9999743505    
                            current damping = 0.500
 
          Norm of current diis error: 0.83918E-02
          max. resid. norm for Fia-block=  2.379D-03 for orbital      3a         
          max. resid. fock norm         =  8.500D-03 for orbital      9a         
          mo-orthogonalization: Cholesky decomposition

 ITERATION  ENERGY          1e-ENERGY        2e-ENERGY     NORM[dD(SAO)]  TOL
   6  -76.320228546168    -121.67013884     36.832984709    0.151D-03 0.547D-09
                            Exc = -9.28065126268     Coul =  46.1136359712    
                              N = 9.9999743774    
                            current damping = 0.350
 
          Norm of current diis error: 0.28246E-02
          max. resid. norm for Fia-block=  7.846D-04 for orbital      3a         
          max. resid. fock norm         =  2.852D-03 for orbital      9a         

 ENERGY CONVERGED !

          Overall gridpoints after grid construction =         28361

 ITERATION  ENERGY          1e-ENERGY        2e-ENERGY     NORM[dD(SAO)]  TOL
   7  -76.320233540135    -121.67090571     36.833746587    0.149D-04 0.519D-09
                            Exc = -9.28074611752     Coul =  46.1144927041    
                              N = 10.000000005    
                            current damping = 0.400
 
          Norm of current diis error: 0.76974E-03
          max. resid. norm for Fia-block=  2.221D-04 for orbital      3a         
          max. resid. fock norm         =  7.301D-04 for orbital      9a         

 End of SCF iterations

   convergence criteria satisfied after    7 iterations


                  ------------------------------------------ 
                 |  total energy      =    -76.32023354013  |
                  ------------------------------------------ 
                 :  kinetic energy    =     75.69767401284  :
                 :  potential energy  =   -152.01790755298  :
                 :  virial theorem    =      1.99184279845  :
                 :  wavefunction norm =      1.00000000000  :
                  .......................................... 


 <geterg> : there is no data group $energy 


 <skperg> : $end is missing 


 orbitals $scfmo  will be written to file mos

    irrep                  1a          2a          3a          4a          5a   
 eigenvalues H        -18.78711    -0.89796    -0.39387    -0.35997    -0.23913
            eV        -511.2274    -24.4350    -10.7178     -9.7954     -6.5072
 occupation              2.0000      2.0000      2.0000      2.0000      2.0000 

    irrep                  6a          7a          8a          9a         10a   
 eigenvalues H         -0.01683     0.07747     0.45522     0.47993     0.84486
            eV          -0.4580      2.1081     12.3872     13.0596     22.9900
 
 
 
 
 ==============================================================================
                           electrostatic moments
 ==============================================================================

 reference point for electrostatic moments:    0.00000   0.00000   0.00000

 
              nuc           elec       ->  total
 ------------------------------------------------------------------------------
                          charge      
 ------------------------------------------------------------------------------
          10.000000     -10.000000       0.000000
 
 ------------------------------------------------------------------------------
                       dipole moment  
 ------------------------------------------------------------------------------
   x     -57.043978      56.707728      -0.336251
   y      -4.516754       3.973553      -0.543201
   z      -1.493872       0.810179      -0.683693
 
   | dipole moment | =     0.9357 a.u. =     2.3784 debye 
 
 ------------------------------------------------------------------------------
                     quadrupole moment
 ------------------------------------------------------------------------------
  xx     326.565912    -327.624371      -1.058459
  yy       4.210364      -8.247845      -4.037482
  zz       3.665985      -7.517492      -3.851507
  xy      27.320877     -23.488750       3.832127
  xz       8.944567      -4.863245       4.081322
  yz       1.790435      -1.019488       0.770948
 
     1/3  trace=      -2.982483
     anisotropy=      10.206144
 
 ==============================================================================
 


    ------------------------------------------------------------------------
         total  cpu-time :   0.20 seconds
         total wall-time :   0.20 seconds
    ------------------------------------------------------------------------

   ****  ridft : all done  ****


    2020-12-01 10:45:14.626 

--- PyADF *** new job *** PyADF ---
 operating system is UNIX !
 hostname is nitrogen02

 ridft (nitrogen02) : TURBOMOLE V7.1 ( 20661 ) 10 Jun 2016 at 08:56:48
 Copyright (C) 2016 TURBOMOLE GmbH, Karlsruhe


    2020-12-01 10:45:14.803 



                                  r i d f t

                        DFT program with RI approximation 
                                for coulomb part 




                                                 
                                 References:     
                                                 
          TURBOMOLE:                             
              R. Ahlrichs, M. Baer, M. Haeser, H. Horn, and
              C. Koelmel
              Electronic structure calculations on workstation
              computers: the program system TURBOMOLE
              Chem. Phys. Lett. 162: 165 (1989)
          Density Functional:                              
              O. Treutler and R. Ahlrichs                      
              Efficient Molecular Numerical Integration Schemes
              J. Chem. Phys. 102: 346 (1995)                   
          Parallel Version:                                
              Performance of parallel TURBOMOLE for Density    
              Functional Calculations                          
              M. v. Arnim and R. Ahlrichs                      
              J. Comp. Chem. 19: 1746 (1998)                   
          RI-J Method:                                     
              Auxiliary Basis Sets to approximate Coulomb      
              Potentials                                       
              Chem. Phys. Lett. 240: 283 (1995)                
              K. Eichkorn, O. Treutler, H. Oehm, M. Haeser     
              and R. Ahlrichs                                  
              Chem. Phys. Lett. 242: 652 (1995)                
                                                           
              Auxiliary Basis Sets for Main Row Atoms and their
              Use to approximate Coulomb Potentials            
              K. Eichkorn, F. Weigend, O. Treutler and         
              R. Ahlrichs                                      
              Theo. Chem. Acc. 97: 119 (1997)                   
                                                           
              Accurate Coulomb-fitting basis sets for H to Rn 
              F. Weigend                                        
              Phys. Chem. Chem. Phys. 8: 1057 (2006)            
                                                           
          Multipole accelerated RI-J (MARI-J):             
              Fast evaluation of the Coulomb potential for     
              electron densities using multipole accelerated   
              resolution of identity approximation             
              M. Sierka, A. Hogekamp and R. Ahlrichs           
              J. Chem. Phys. 118: 9136 (2003)                  
          RI-JK Method:                                     
              A fully direct RI-HF algorithm: Implementation,
              optimised auxiliary basis sets, demonstration of
              accuracy and efficiency                         
              F. Weigend                                      
              Phys. Chem. Chem. Phys. 4: 4285 (2002)           
          Two-component HF and DFT with spin-orbit coupling:  
              Self-consistent treatment of spin-orbit         
              interactions with efficient Hartree-Fock and    
              density functional methods                      
              M. K. Armbruster, F. Weigend, C. van Wüllen and 
              W. Klopper                                      
              Phys. Chem. Chem. Phys. 10: 1748 (2008)         
          Relativistic all-electron 2c calculations           
              An efficient implementation of two-component    
              relativistic exact-decoupling methods for large 
              molecules                                       
              D. Peng, N. Middendorf, F. Weigend, M. Reiher   
              J. Chem. Phys. 138, 184105 (2013)               
                                         


 


              +--------------------------------------------------+
              |      general information about current run       |
              +--------------------------------------------------+

 
 B-P86 functional
 exchange:    LDA + Becke (B88)
 correlation: LDA (VWN) + Perdew (P86)
 A DFT calculation using the RI-J approximation will be carried out.
 Allocatable memory for RI due to $ricore (MB):        2000


              +--------------------------------------------------+
              | Atomic coordinate, charge and isotop information |
              +--------------------------------------------------+

                    atomic coordinates            atom    charge  isotop
         -5.63983270   -0.34736429   -0.01809918    o      8.000     0
         -4.69407590    0.59163298   -1.61257617    h      1.000     0
         -6.78691098   -1.61162366    1.16700884    h      1.000     0
 
       center of nuclear mass  :   -5.65109677   -0.36556291   -0.04100364
       center of nuclear charge:   -5.65996485   -0.37989050   -0.05903608

              +--------------------------------------------------+
              |               basis set information              |
              +--------------------------------------------------+

              we will work with the 1s 3p 5d 7f 9g ... basis set
              ...i.e. with spherical basis functions...

   type   atoms  prim   cont   basis
   ---------------------------------------------------------------------------
    o        1     24     14   def2-SVP   [3s2p1d|7s4p1d]
    h        2      7      5   def2-SVP   [2s1p|4s1p]
   ---------------------------------------------------------------------------
   total:    3     38     24
   ---------------------------------------------------------------------------

   total number of primitive shells          :   17
   total number of contracted shells         :   12
   total number of cartesian basis functions :   25
   total number of SCF-basis functions       :   24


 integral neglect threshold       :  0.13E-08
 integral storage threshold THIZE :  0.10E-04
 integral storage threshold THIME :         5

 RI-J AUXILIARY BASIS SET information:

              we will work with the 1s 3p 5d 7f 9g ... basis set
              ...i.e. with spherical basis functions...

   type   atoms  prim   cont   basis
   ---------------------------------------------------------------------------
    o        1     70     49   def2-SVP   [6s4p3d1f1g|12s5p4d2f1g]
    h        2     16     11   def2-SVP   [3s1p1d|5s2p1d]
   ---------------------------------------------------------------------------
   total:    3    102     71
   ---------------------------------------------------------------------------

   total number of primitive shells          :   32
   total number of contracted shells         :   25
   total number of cartesian basis functions :   85
   total number of SCF-basis functions       :   71


 symmetry group of the molecule :   c1 

 the group has the following generators :
   c1(z)

    1 symmetry operations found

 there are 1 real representations :   a   

 maximum number of shells which are related by symmetry :  1


    mo occupation :
   irrep   mo's   occupied
    a       24        5
 
 number of basis functions   :           24
 number of occupied orbitals :            5
 
  
           ------------------
           density functional
           ------------------
 B-P86 functional
 exchange:    LDA + Becke (B88)
 correlation: LDA (VWN) + Perdew (P86)
 iterations will be done with small grid
  
 spherical integration : Lebedev's spherical grid
 spherical gridsize    :           4
    i.e. gridpoints    :         434
 value for diffuse not defined
 radial integration    : Chebyshev 2nd kind (scaling 3)
 radial gridsize       :           6
 integration cells     :           3
 partition function    : becke
 partition sharpness   :           3
  

 biggest AO integral is expected to be     4.776656448
  
           ------------------------
               RI-J - INFORMATION
           ------------------------
 Contributions to RI integral batches: 
  neglected integral batches:           0
  direct contribution:                  0
  memory contribution:          78
 Memory core needed for (P|Q) and Cholesky      1 MByte
 Memory core minimum needed except of (P|Q)     1 MByte
 Total minimum memory core needed (sum)         1 MByte
  
 ****************************************
 Memory allocated for RI-J     1 MByte
 ****************************************
                                            

          ------------------------
          nuclear repulsion energy  :   7.94209219003    
          ------------------------

 
          -----------------
          -S,T+V- integrals
          -----------------

 1e-integrals will be neglected if expon. factor < 0.133678E-09
 
   Difference densities algorithm switched on.
   The maximal number of linear combinations of
   difference densities is          20 .

 DIIS switched on: error vector is FDS-SDF
 Max. Iterations for DIIS is     :   4
 DIIS matrix (see manual) 
    Scaling factor of diagonals  :  1.200
    threshold for scaling factor :  0.000

 scf convergence criterion : increment of total energy < .1000000D-05
                  and increment of one-electron energy < .1000000D-02


 <geterg> : there is no data group $energy 

  MOs are in ASCII format !


 automatic virtual orbital shift switched on 
      shift if e(lumo)-e(homo) < 0.10000000    


 reading orbital data $scfmo  from file mos
 orbital characterization : scfconv=6

 DSCF restart information will be dumped onto file mos


 Starting SCF iterations

          Overall gridpoints after grid construction =          7360

 ITERATION  ENERGY          1e-ENERGY        2e-ENERGY     NORM[dD(SAO)]  TOL
   1  -76.092797332547    -120.66138939     36.626499863    0.000D+00 0.133D-08
                            Exc = -9.28553269419     Coul =  45.9120325573    
                              N = 10.000062722    
                            current damping = 0.700
 
          max. resid. norm for Fia-block=  2.176D-01 for orbital      3a         
          max. resid. fock norm         =  5.741D-01 for orbital     15a         

 ITERATION  ENERGY          1e-ENERGY        2e-ENERGY     NORM[dD(SAO)]  TOL
   2  -76.234364282375    -121.33435715     37.157900681    0.646D+00 0.907D-09
                            Exc = -9.31103491905     Coul =  46.4689355999    
                              N = 10.000060244    
                            current damping = 0.650
 
          Norm of current diis error: 0.34990    
          max. resid. norm for Fia-block=  1.170D-01 for orbital      4a         
          max. resid. fock norm         =  2.360D-01 for orbital     16a         

 ITERATION  ENERGY          1e-ENERGY        2e-ENERGY     NORM[dD(SAO)]  TOL
   3  -76.271758514899    -120.71015580     36.496305095    0.164D+00 0.679D-09
                            Exc = -9.20786605362     Coul =  45.7041711490    
                              N = 10.000055271    
                            current damping = 0.600
 
          Norm of current diis error: 0.18390    
          max. resid. norm for Fia-block=  4.520D-02 for orbital      4a         
          max. resid. fock norm         =  1.150D-01 for orbital     15a         

 ITERATION  ENERGY          1e-ENERGY        2e-ENERGY     NORM[dD(SAO)]  TOL
   4  -76.281300459584    -121.18597183     36.962579176    0.127D+00 0.599D-09
                            Exc = -9.26487787358     Coul =  46.2274570496    
                              N = 10.000056397    
                            current damping = 0.650
 
          Norm of current diis error: 0.81631E-01
          max. resid. norm for Fia-block=  2.002D-02 for orbital      4a         
          max. resid. fock norm         =  3.873D-02 for orbital     15a         

 ITERATION  ENERGY          1e-ENERGY        2e-ENERGY     NORM[dD(SAO)]  TOL
   5  -76.282500143066    -121.07884634     36.854254004    0.109D-01 0.562D-09
                            Exc = -9.24941220005     Coul =  46.1036662036    
                              N = 10.000055802    
                            current damping = 0.700
 
          Norm of current diis error: 0.21967E-01
          max. resid. norm for Fia-block=  7.249D-03 for orbital      4a         
          max. resid. fock norm         =  1.422D-02 for orbital     15a         
          mo-orthogonalization: Cholesky decomposition

 ITERATION  ENERGY          1e-ENERGY        2e-ENERGY     NORM[dD(SAO)]  TOL
   6  -76.282665439898    -121.07192419     36.847166556    0.201D-02 0.538D-09
                            Exc = -9.24788126620     Coul =  46.0950478222    
                              N = 10.000055672    
                            current damping = 0.550
 
          Norm of current diis error: 0.91912E-02
          max. resid. norm for Fia-block=  2.979D-03 for orbital      4a         
          max. resid. fock norm         =  5.689D-03 for orbital     15a         

 ITERATION  ENERGY          1e-ENERGY        2e-ENERGY     NORM[dD(SAO)]  TOL
   7  -76.282694026113    -121.07131435     36.846528137    0.107D-03 0.512D-09
                            Exc = -9.24755357746     Coul =  46.0940817144    
                              N = 10.000055628    
                            current damping = 0.400
 
          Norm of current diis error: 0.33487E-02
          max. resid. norm for Fia-block=  1.045D-03 for orbital      4a         
          max. resid. fock norm         =  1.989D-03 for orbital     15a         

 ITERATION  ENERGY          1e-ENERGY        2e-ENERGY     NORM[dD(SAO)]  TOL
   8  -76.282697653171    -121.07364317     36.848853323    0.411D-04 0.484D-09
                            Exc = -9.24778149382     Coul =  46.0966348167    
                              N = 10.000055625    
                            current damping = 0.450
 
          Norm of current diis error: 0.13074E-02
          max. resid. norm for Fia-block=  3.711D-04 for orbital      4a         
          max. resid. fock norm         =  5.828D-04 for orbital     15a         

 ENERGY CONVERGED !

          Overall gridpoints after grid construction =         28346

 ITERATION  ENERGY          1e-ENERGY        2e-ENERGY     NORM[dD(SAO)]  TOL
   9  -76.282640606147    -121.07005522     36.845322425    0.189D-04 0.487D-09
                            Exc = -9.24721950451     Coul =  46.0925419293    
                              N = 10.000000211    
                            current damping = 0.500
 
          Norm of current diis error: 0.63469E-03
          max. resid. norm for Fia-block=  9.228D-05 for orbital      4a         
          max. resid. fock norm         =  1.816D-04 for orbital     13a         

 End of SCF iterations

   convergence criteria satisfied after    9 iterations


                  ------------------------------------------ 
                 |  total energy      =    -76.28264060615  |
                  ------------------------------------------ 
                 :  kinetic energy    =     75.30159817976  :
                 :  potential energy  =   -151.58423878590  :
                 :  virial theorem    =      1.98713937511  :
                 :  wavefunction norm =      1.00000000000  :
                  .......................................... 


 <geterg> : there is no data group $energy 


 <skperg> : $end is missing 


 orbitals $scfmo  will be written to file mos

    irrep                  1a          2a          3a          4a          5a   
 eigenvalues H        -18.72535    -0.80048    -0.45975    -0.19823    -0.19390
            eV        -509.5467    -21.7824    -12.5105     -5.3941     -5.2762
 occupation              2.0000      2.0000      2.0000      2.0000      2.0000 

    irrep                  6a          7a          8a          9a         10a   
 eigenvalues H         -0.04314     0.08815     0.36299     0.57715     0.87807
            eV          -1.1738      2.3987      9.8776     15.7053     23.8936
 
 
 
 
 ==============================================================================
                           electrostatic moments
 ==============================================================================

 reference point for electrostatic moments:    0.00000   0.00000   0.00000

 
              nuc           elec       ->  total
 ------------------------------------------------------------------------------
                          charge      
 ------------------------------------------------------------------------------
          10.000000     -10.000000       0.000000
 
 ------------------------------------------------------------------------------
                       dipole moment  
 ------------------------------------------------------------------------------
   x     -56.599648      56.512491      -0.087157
   y      -3.798905       3.658112      -0.140793
   z      -0.590361       0.413156      -0.177204
 
   | dipole moment | =     0.2425 a.u. =     0.6164 debye 
 
 ------------------------------------------------------------------------------
                     quadrupole moment
 ------------------------------------------------------------------------------
  xx     322.558212    -325.844467      -3.286255
  yy       3.912656      -7.942598      -4.029942
  zz       3.964932      -7.314814      -3.349882
  xy      23.833388     -21.779083       2.054305
  xz       0.465781      -0.974019      -0.508238
  yz      -2.784536       1.271741      -1.512796
 
     1/3  trace=      -3.555360
     anisotropy=       4.561894
 
 ==============================================================================
 


    ------------------------------------------------------------------------
         total  cpu-time :   0.23 seconds
         total wall-time :   0.24 seconds
    ------------------------------------------------------------------------

   ****  ridft : all done  ****


    2020-12-01 10:45:15.039 

--- PyADF *** new job *** PyADF ---
 operating system is UNIX !
 hostname is nitrogen02

 ridft (nitrogen02) : TURBOMOLE V7.1 ( 20661 ) 10 Jun 2016 at 08:56:48
 Copyright (C) 2016 TURBOMOLE GmbH, Karlsruhe


    2020-12-01 10:45:15.217 



                                  r i d f t

                        DFT program with RI approximation 
                                for coulomb part 




                                                 
                                 References:     
                                                 
          TURBOMOLE:                             
              R. Ahlrichs, M. Baer, M. Haeser, H. Horn, and
              C. Koelmel
              Electronic structure calculations on workstation
              computers: the program system TURBOMOLE
              Chem. Phys. Lett. 162: 165 (1989)
          Density Functional:                              
              O. Treutler and R. Ahlrichs                      
              Efficient Molecular Numerical Integration Schemes
              J. Chem. Phys. 102: 346 (1995)                   
          Parallel Version:                                
              Performance of parallel TURBOMOLE for Density    
              Functional Calculations                          
              M. v. Arnim and R. Ahlrichs                      
              J. Comp. Chem. 19: 1746 (1998)                   
          RI-J Method:                                     
              Auxiliary Basis Sets to approximate Coulomb      
              Potentials                                       
              Chem. Phys. Lett. 240: 283 (1995)                
              K. Eichkorn, O. Treutler, H. Oehm, M. Haeser     
              and R. Ahlrichs                                  
              Chem. Phys. Lett. 242: 652 (1995)                
                                                           
              Auxiliary Basis Sets for Main Row Atoms and their
              Use to approximate Coulomb Potentials            
              K. Eichkorn, F. Weigend, O. Treutler and         
              R. Ahlrichs                                      
              Theo. Chem. Acc. 97: 119 (1997)                   
                                                           
              Accurate Coulomb-fitting basis sets for H to Rn 
              F. Weigend                                        
              Phys. Chem. Chem. Phys. 8: 1057 (2006)            
                                                           
          Multipole accelerated RI-J (MARI-J):             
              Fast evaluation of the Coulomb potential for     
              electron densities using multipole accelerated   
              resolution of identity approximation             
              M. Sierka, A. Hogekamp and R. Ahlrichs           
              J. Chem. Phys. 118: 9136 (2003)                  
          RI-JK Method:                                     
              A fully direct RI-HF algorithm: Implementation,
              optimised auxiliary basis sets, demonstration of
              accuracy and efficiency                         
              F. Weigend                                      
              Phys. Chem. Chem. Phys. 4: 4285 (2002)           
          Two-component HF and DFT with spin-orbit coupling:  
              Self-consistent treatment of spin-orbit         
              interactions with efficient Hartree-Fock and    
              density functional methods                      
              M. K. Armbruster, F. Weigend, C. van Wüllen and 
              W. Klopper                                      
              Phys. Chem. Chem. Phys. 10: 1748 (2008)         
          Relativistic all-electron 2c calculations           
              An efficient implementation of two-component    
              relativistic exact-decoupling methods for large 
              molecules                                       
              D. Peng, N. Middendorf, F. Weigend, M. Reiher   
              J. Chem. Phys. 138, 184105 (2013)               
                                         


 


              +--------------------------------------------------+
              |      general information about current run       |
              +--------------------------------------------------+

 
 B-P86 functional
 exchange:    LDA + Becke (B88)
 correlation: LDA (VWN) + Perdew (P86)
 A DFT calculation using the RI-J approximation will be carried out.
 Allocatable memory for RI due to $ricore (MB):        2000


              +--------------------------------------------------+
              | Atomic coordinate, charge and isotop information |
              +--------------------------------------------------+

                    atomic coordinates            atom    charge  isotop
         -5.59869581   -0.27396787    0.10699195    o      8.000     0
         -5.10805036   -0.11438744   -2.67669986    h      1.000     0
         -7.02579942   -2.07045290    0.24587961    h      1.000     0
 
       center of nuclear mass  :   -5.65109125   -0.36555375   -0.04098656
       center of nuclear charge:   -5.69234163   -0.43765833   -0.15748846

              +--------------------------------------------------+
              |               basis set information              |
              +--------------------------------------------------+

              we will work with the 1s 3p 5d 7f 9g ... basis set
              ...i.e. with spherical basis functions...

   type   atoms  prim   cont   basis
   ---------------------------------------------------------------------------
    o        1     24     14   def2-SVP   [3s2p1d|7s4p1d]
    h        2      7      5   def2-SVP   [2s1p|4s1p]
   ---------------------------------------------------------------------------
   total:    3     38     24
   ---------------------------------------------------------------------------

   total number of primitive shells          :   17
   total number of contracted shells         :   12
   total number of cartesian basis functions :   25
   total number of SCF-basis functions       :   24


 integral neglect threshold       :  0.13E-08
 integral storage threshold THIZE :  0.10E-04
 integral storage threshold THIME :         5

 RI-J AUXILIARY BASIS SET information:

              we will work with the 1s 3p 5d 7f 9g ... basis set
              ...i.e. with spherical basis functions...

   type   atoms  prim   cont   basis
   ---------------------------------------------------------------------------
    o        1     70     49   def2-SVP   [6s4p3d1f1g|12s5p4d2f1g]
    h        2     16     11   def2-SVP   [3s1p1d|5s2p1d]
   ---------------------------------------------------------------------------
   total:    3    102     71
   ---------------------------------------------------------------------------

   total number of primitive shells          :   32
   total number of contracted shells         :   25
   total number of cartesian basis functions :   85
   total number of SCF-basis functions       :   71


 symmetry group of the molecule :   c1 

 the group has the following generators :
   c1(z)

    1 symmetry operations found

 there are 1 real representations :   a   

 maximum number of shells which are related by symmetry :  1


    mo occupation :
   irrep   mo's   occupied
    a       24        5
 
 number of basis functions   :           24
 number of occupied orbitals :            5
 
  
           ------------------
           density functional
           ------------------
 B-P86 functional
 exchange:    LDA + Becke (B88)
 correlation: LDA (VWN) + Perdew (P86)
 iterations will be done with small grid
  
 spherical integration : Lebedev's spherical grid
 spherical gridsize    :           4
    i.e. gridpoints    :         434
 value for diffuse not defined
 radial integration    : Chebyshev 2nd kind (scaling 3)
 radial gridsize       :           6
 integration cells     :           3
 partition function    : becke
 partition sharpness   :           3
  

 biggest AO integral is expected to be     4.776656448
  
           ------------------------
               RI-J - INFORMATION
           ------------------------
 Contributions to RI integral batches: 
  neglected integral batches:           0
  direct contribution:                  0
  memory contribution:          78
 Memory core needed for (P|Q) and Cholesky      1 MByte
 Memory core minimum needed except of (P|Q)     1 MByte
 Total minimum memory core needed (sum)         1 MByte
  
 ****************************************
 Memory allocated for RI-J     1 MByte
 ****************************************
                                            

          ------------------------
          nuclear repulsion energy  :   6.55587513409    
          ------------------------

 
          -----------------
          -S,T+V- integrals
          -----------------

 1e-integrals will be neglected if expon. factor < 0.133678E-09
 
[...]
                       dipole moment  
 ------------------------------------------------------------------------------
   x     -57.323584      57.009470      -0.314114
   y      -4.866048       4.351904      -0.514144
   z      -1.450513       0.771747      -0.678766
 
   | dipole moment | =     0.9076 a.u. =     2.3069 debye 
 
 ------------------------------------------------------------------------------
                     quadrupole moment
 ------------------------------------------------------------------------------
  xx     331.364804    -332.651226      -1.286421
  yy       7.159717     -11.017580      -3.857863
  zz       3.599425      -7.711639      -4.112214
  xy      31.498826     -27.434076       4.064749
  xz       8.784251      -4.793465       3.990786
  yz       1.871755      -1.175318       0.696437
 
     1/3  trace=      -3.085499
     anisotropy=      10.302029
 
 ==============================================================================
 


    ------------------------------------------------------------------------
         total  cpu-time :   0.20 seconds
         total wall-time :   0.20 seconds
    ------------------------------------------------------------------------

   ****  ridft : all done  ****


    2020-12-01 10:45:40.180 

--- PyADF *** new job *** PyADF ---
 operating system is UNIX !
 hostname is nitrogen02

 ridft (nitrogen02) : TURBOMOLE V7.1 ( 20661 ) 10 Jun 2016 at 08:56:48
 Copyright (C) 2016 TURBOMOLE GmbH, Karlsruhe


    2020-12-01 10:45:40.380 



                                  r i d f t

                        DFT program with RI approximation 
                                for coulomb part 




                                                 
                                 References:     
                                                 
          TURBOMOLE:                             
              R. Ahlrichs, M. Baer, M. Haeser, H. Horn, and
              C. Koelmel
              Electronic structure calculations on workstation
              computers: the program system TURBOMOLE
              Chem. Phys. Lett. 162: 165 (1989)
          Density Functional:                              
              O. Treutler and R. Ahlrichs                      
              Efficient Molecular Numerical Integration Schemes
              J. Chem. Phys. 102: 346 (1995)                   
          Parallel Version:                                
              Performance of parallel TURBOMOLE for Density    
              Functional Calculations                          
              M. v. Arnim and R. Ahlrichs                      
              J. Comp. Chem. 19: 1746 (1998)                   
          RI-J Method:                                     
              Auxiliary Basis Sets to approximate Coulomb      
              Potentials                                       
              Chem. Phys. Lett. 240: 283 (1995)                
              K. Eichkorn, O. Treutler, H. Oehm, M. Haeser     
              and R. Ahlrichs                                  
              Chem. Phys. Lett. 242: 652 (1995)                
                                                           
              Auxiliary Basis Sets for Main Row Atoms and their
              Use to approximate Coulomb Potentials            
              K. Eichkorn, F. Weigend, O. Treutler and         
              R. Ahlrichs                                      
              Theo. Chem. Acc. 97: 119 (1997)                   
                                                           
              Accurate Coulomb-fitting basis sets for H to Rn 
              F. Weigend                                        
              Phys. Chem. Chem. Phys. 8: 1057 (2006)            
                                                           
          Multipole accelerated RI-J (MARI-J):             
              Fast evaluation of the Coulomb potential for     
              electron densities using multipole accelerated   
              resolution of identity approximation             
              M. Sierka, A. Hogekamp and R. Ahlrichs           
              J. Chem. Phys. 118: 9136 (2003)                  
          RI-JK Method:                                     
              A fully direct RI-HF algorithm: Implementation,
              optimised auxiliary basis sets, demonstration of
              accuracy and efficiency                         
              F. Weigend                                      
              Phys. Chem. Chem. Phys. 4: 4285 (2002)           
          Two-component HF and DFT with spin-orbit coupling:  
              Self-consistent treatment of spin-orbit         
              interactions with efficient Hartree-Fock and    
              density functional methods                      
              M. K. Armbruster, F. Weigend, C. van Wüllen and 
              W. Klopper                                      
              Phys. Chem. Chem. Phys. 10: 1748 (2008)         
          Relativistic all-electron 2c calculations           
              An efficient implementation of two-component    
              relativistic exact-decoupling methods for large 
              molecules                                       
              D. Peng, N. Middendorf, F. Weigend, M. Reiher   
              J. Chem. Phys. 138, 184105 (2013)               
                                         


 


              +--------------------------------------------------+
              |      general information about current run       |
              +--------------------------------------------------+

 
 B-P86 functional
 exchange:    LDA + Becke (B88)
 correlation: LDA (VWN) + Perdew (P86)
 A DFT calculation using the RI-J approximation will be carried out.
 Allocatable memory for RI due to $ricore (MB):        2000


              +--------------------------------------------------+
              | Atomic coordinate, charge and isotop information |
              +--------------------------------------------------+

                    atomic coordinates            atom    charge  isotop
         -5.60430586   -0.30298762   -0.02360597    o      8.000     0
         -4.67604046    0.61422198   -1.61501373    h      1.000     0
         -7.36876721   -2.33851965    1.25685998    h      1.000     0
 
       center of nuclear mass  :   -5.65109157   -0.36555849   -0.04100337
       center of nuclear charge:   -5.68792546   -0.41481986   -0.05470015

              +--------------------------------------------------+
              |               basis set information              |
              +--------------------------------------------------+

              we will work with the 1s 3p 5d 7f 9g ... basis set
              ...i.e. with spherical basis functions...

   type   atoms  prim   cont   basis
   ---------------------------------------------------------------------------
    o        1     24     14   def2-SVP   [3s2p1d|7s4p1d]
    h        2      7      5   def2-SVP   [2s1p|4s1p]
   ---------------------------------------------------------------------------
   total:    3     38     24
   ---------------------------------------------------------------------------

   total number of primitive shells          :   17
   total number of contracted shells         :   12
   total number of cartesian basis functions :   25
   total number of SCF-basis functions       :   24


 integral neglect threshold       :  0.13E-08
 integral storage threshold THIZE :  0.10E-04
 integral storage threshold THIME :         5

 RI-J AUXILIARY BASIS SET information:

              we will work with the 1s 3p 5d 7f 9g ... basis set
              ...i.e. with spherical basis functions...

   type   atoms  prim   cont   basis
   ---------------------------------------------------------------------------
    o        1     70     49   def2-SVP   [6s4p3d1f1g|12s5p4d2f1g]
    h        2     16     11   def2-SVP   [3s1p1d|5s2p1d]
   ---------------------------------------------------------------------------
   total:    3    102     71
   ---------------------------------------------------------------------------

   total number of primitive shells          :   32
   total number of contracted shells         :   25
   total number of cartesian basis functions :   85
   total number of SCF-basis functions       :   71


 symmetry group of the molecule :   c1 

 the group has the following generators :
   c1(z)

    1 symmetry operations found

 there are 1 real representations :   a   

 maximum number of shells which are related by symmetry :  1


    mo occupation :
   irrep   mo's   occupied
    a       24        5
 
 number of basis functions   :           24
 number of occupied orbitals :            5
 
  
           ------------------
           density functional
           ------------------
 B-P86 functional
 exchange:    LDA + Becke (B88)
 correlation: LDA (VWN) + Perdew (P86)
 iterations will be done with small grid
  
 spherical integration : Lebedev's spherical grid
 spherical gridsize    :           4
    i.e. gridpoints    :         434
 value for diffuse not defined
 radial integration    : Chebyshev 2nd kind (scaling 3)
 radial gridsize       :           6
 integration cells     :           3
 partition function    : becke
 partition sharpness   :           3
  

 biggest AO integral is expected to be     4.776656448
  
           ------------------------
               RI-J - INFORMATION
           ------------------------
 Contributions to RI integral batches: 
  neglected integral batches:           0
  direct contribution:                  0
  memory contribution:          78
 Memory core needed for (P|Q) and Cholesky      1 MByte
 Memory core minimum needed except of (P|Q)     1 MByte
 Total minimum memory core needed (sum)         1 MByte
  
 ****************************************
 Memory allocated for RI-J     1 MByte
 ****************************************
                                            

          ------------------------
          nuclear repulsion energy  :   6.77256317039    
          ------------------------

 
          -----------------
          -S,T+V- integrals
          -----------------

 1e-integrals will be neglected if expon. factor < 0.133678E-09
 
   Difference densities algorithm switched on.
   The maximal number of linear combinations of
   difference densities is          20 .

 DIIS switched on: error vector is FDS-SDF
 Max. Iterations for DIIS is     :   4
 DIIS matrix (see manual) 
    Scaling factor of diagonals  :  1.200
    threshold for scaling factor :  0.000

 scf convergence criterion : increment of total energy < .1000000D-05
                  and increment of one-electron energy < .1000000D-02


 <geterg> : there is no data group $energy 

  MOs are in ASCII format !


 automatic virtual orbital shift switched on 
      shift if e(lumo)-e(homo) < 0.10000000    


 reading orbital data $scfmo  from file mos
 orbital characterization : scfconv=6

 DSCF restart information will be dumped onto file mos


 Starting SCF iterations

          Overall gridpoints after grid construction =          7377

 ITERATION  ENERGY          1e-ENERGY        2e-ENERGY     NORM[dD(SAO)]  TOL
   1  -76.112143584875    -118.36265803     35.477951274    0.000D+00 0.133D-08
                            Exc = -9.15776607698     Coul =  44.6357173507    
                              N = 10.000056585    
                            current damping = 0.700
 
          max. resid. norm for Fia-block=  1.368D-01 for orbital      4a         
          max. resid. fock norm         =  5.376D-01 for orbital     21a         

 ITERATION  ENERGY          1e-ENERGY        2e-ENERGY     NORM[dD(SAO)]  TOL
   2  -76.172183444103    -119.12676570     36.182019083    0.378D+00 0.865D-09
                            Exc = -9.21097839180     Coul =  45.3929974744    
                              N = 10.000056734    
                            current damping = 0.650
 
          Norm of current diis error: 0.28434    
          max. resid. norm for Fia-block=  8.968D-02 for orbital      4a         
          max. resid. fock norm         =  3.401D-01 for orbital     24a         
          irrep a   : virtual orbitals shifted by    0.04090

 ITERATION  ENERGY          1e-ENERGY        2e-ENERGY     NORM[dD(SAO)]  TOL
   3  -76.171706092439    -117.63328416     34.689014894    0.289D+00 0.748D-09
                            Exc = -9.04062940503     Coul =  43.7296442987    
                              N = 10.000053997    
                            current damping = 0.700
 
          Norm of current diis error: 0.35182    
          max. resid. norm for Fia-block=  2.929D-02 for orbital      4a         
          max. resid. fock norm         =  1.014D-01 for orbital     23a         
          irrep a   : virtual orbitals shifted by    0.03553

 ITERATION  ENERGY          1e-ENERGY        2e-ENERGY     NORM[dD(SAO)]  TOL
   4  -76.188524798174    -118.19844845     35.237360481    0.569D-01 0.658D-09
                            Exc = -9.09830317485     Coul =  44.3356636557    
                              N = 10.000054885    
                            current damping = 0.750
 
          Norm of current diis error: 0.15407    
          max. resid. norm for Fia-block=  1.476D-02 for orbital      4a         
          max. resid. fock norm         =  3.853D-02 for orbital     23a         
          irrep a   : virtual orbitals shifted by    0.02665

 ITERATION  ENERGY          1e-ENERGY        2e-ENERGY     NORM[dD(SAO)]  TOL
   5  -76.192865554737    -118.68218020     35.716751472    0.245D-01 0.576D-09
                            Exc = -9.14783641093     Coul =  44.8645878829    
                              N = 10.000055570    
                            current damping = 0.600
 
          Norm of current diis error: 0.27132E-01
          max. resid. norm for Fia-block=  5.589D-03 for orbital      4a         
          max. resid. fock norm         =  1.473D-02 for orbital     23a         
          irrep a   : virtual orbitals shifted by    0.03676
          mo-orthogonalization: Cholesky decomposition

 ITERATION  ENERGY          1e-ENERGY        2e-ENERGY     NORM[dD(SAO)]  TOL
   6  -76.192982605180    -118.66375206     35.698206284    0.356D-02 0.549D-09
                            Exc = -9.14532123199     Coul =  44.8435275163    
                              N = 10.000055512    
                            current damping = 0.650
 
          Norm of current diis error: 0.12671E-01
          max. resid. norm for Fia-block=  2.475D-03 for orbital      4a         
          max. resid. fock norm         =  5.557D-03 for orbital     23a         
          irrep a   : virtual orbitals shifted by    0.03712

 ITERATION  ENERGY          1e-ENERGY        2e-ENERGY     NORM[dD(SAO)]  TOL
   7  -76.193010816159    -118.64276329     35.677189308    0.693D-03 0.529D-09
                            Exc = -9.14287462197     Coul =  44.8200639300    
                              N = 10.000055470    
                            current damping = 0.500
 
          Norm of current diis error: 0.39503E-02
          max. resid. norm for Fia-block=  9.045D-04 for orbital      4a         
          max. resid. fock norm         =  2.125D-03 for orbital     23a         
          irrep a   : virtual orbitals shifted by    0.04350

 ITERATION  ENERGY          1e-ENERGY        2e-ENERGY     NORM[dD(SAO)]  TOL
   8  -76.193013872409    -118.63912941     35.673552368    0.152D-03 0.513D-09
                            Exc = -9.14241526285     Coul =  44.8159676307    
                              N = 10.000055461    
                            current damping = 0.350
 
          Norm of current diis error: 0.13695E-02
          max. resid. norm for Fia-block=  3.253D-04 for orbital      4a         
          max. resid. fock norm         =  7.199D-04 for orbital     23a         
          irrep a   : virtual orbitals shifted by    0.04937

 ENERGY CONVERGED !

          Overall gridpoints after grid construction =         28378

 ITERATION  ENERGY          1e-ENERGY        2e-ENERGY     NORM[dD(SAO)]  TOL
   9  -76.192976349091    -118.63830560     35.672766079    0.751D-04 0.498D-09
                            Exc = -9.14227214866     Coul =  44.8150382272    
                              N = 10.000000218    
                            current damping = 0.200
 
          Norm of current diis error: 0.55169E-03
          max. resid. norm for Fia-block=  9.931D-05 for orbital      4a         
          max. resid. fock norm         =  1.777D-04 for orbital     23a         

 End of SCF iterations

   convergence criteria satisfied after    9 iterations


                  ------------------------------------------ 
                 |  total energy      =    -76.19297634909  |
                  ------------------------------------------ 
                 :  kinetic energy    =     75.29328799774  :
                 :  potential energy  =   -151.48626434683  :
                 :  virial theorem    =      1.98819197786  :
                 :  wavefunction norm =      1.00000000000  :
                  .......................................... 


 <geterg> : there is no data group $energy 


 <skperg> : $end is missing 


 orbitals $scfmo  will be written to file mos

    irrep                  1a          2a          3a          4a          5a   
 eigenvalues H        -18.75968    -0.79211    -0.39947    -0.22059    -0.19840
            eV        -510.4809    -21.5546    -10.8702     -6.0027     -5.3988
 occupation              2.0000      2.0000      2.0000      2.0000      2.0000 

    irrep                  6a          7a          8a          9a         10a   
 eigenvalues H         -0.16097     0.04785     0.37524     0.49729     0.86127
            eV          -4.3804      1.3021     10.2109     13.5320     23.4365
 
 
 
 
 ==============================================================================
                           electrostatic moments
 ==============================================================================

 reference point for electrostatic moments:    0.00000   0.00000   0.00000

 
              nuc           elec       ->  total
 ------------------------------------------------------------------------------
                          charge      
 ------------------------------------------------------------------------------
          10.000000     -10.000000       0.000000
 
 ------------------------------------------------------------------------------
                       dipole moment  
 ------------------------------------------------------------------------------
   x     -56.879255      56.702166      -0.177089
   y      -4.148199       3.891708      -0.256490
   z      -0.547002       0.363804      -0.183198
 
   | dipole moment | =     0.3615 a.u. =     0.9189 debye 
 
 ------------------------------------------------------------------------------
                     quadrupole moment
 ------------------------------------------------------------------------------
  xx     327.430038    -329.615482      -2.185444
  yy       6.580355     -10.204446      -3.624092
  zz       4.192424      -8.056483      -3.864059
  xy      27.944162     -24.739139       3.205023
  xz      -0.651278       0.226541      -0.424737
  yz      -3.873950       2.386292      -1.487658
 
     1/3  trace=      -3.224531
     anisotropy=       6.361574
 
 ==============================================================================
 


    ------------------------------------------------------------------------
         total  cpu-time :   0.23 seconds
         total wall-time :   0.24 seconds
    ------------------------------------------------------------------------

   ****  ridft : all done  ****


    2020-12-01 10:45:40.613 

