--- PyADF *** new job *** PyADF ---
 operating system is UNIX !
 hostname is nitrogen02

 ridft (nitrogen02) : TURBOMOLE V7.1 ( 20661 ) 10 Jun 2016 at 08:56:48
 Copyright (C) 2016 TURBOMOLE GmbH, Karlsruhe


    2020-12-01 10:45:08.550 



                                  r i d f t

                        DFT program with RI approximation 
                                for coulomb part 




                                                 
                                 References:     
                                                 
          TURBOMOLE:                             
              R. Ahlrichs, M. Baer, M. Haeser, H. Horn, and
              C. Koelmel
              Electronic structure calculations on workstation
              computers: the program system TURBOMOLE
              Chem. Phys. Lett. 162: 165 (1989)
          Density Functional:                              
              O. Treutler and R. Ahlrichs                      
              Efficient Molecular Numerical Integration Schemes
              J. Chem. Phys. 102: 346 (1995)                   
          Parallel Version:                                
              Performance of parallel TURBOMOLE for Density    
              Functional Calculations                          
              M. v. Arnim and R. Ahlrichs                      
              J. Comp. Chem. 19: 1746 (1998)                   
          RI-J Method:                                     
              Auxiliary Basis Sets to approximate Coulomb      
              Potentials                                       
              Chem. Phys. Lett. 240: 283 (1995)                
              K. Eichkorn, O. Treutler, H. Oehm, M. Haeser     
              and R. Ahlrichs                                  
              Chem. Phys. Lett. 242: 652 (1995)                
                                                           
              Auxiliary Basis Sets for Main Row Atoms and their
              Use to approximate Coulomb Potentials            
              K. Eichkorn, F. Weigend, O. Treutler and         
              R. Ahlrichs                                      
              Theo. Chem. Acc. 97: 119 (1997)                   
                                                           
              Accurate Coulomb-fitting basis sets for H to Rn 
              F. Weigend                                        
              Phys. Chem. Chem. Phys. 8: 1057 (2006)            
                                                           
          Multipole accelerated RI-J (MARI-J):             
              Fast evaluation of the Coulomb potential for     
              electron densities using multipole accelerated   
              resolution of identity approximation             
              M. Sierka, A. Hogekamp and R. Ahlrichs           
              J. Chem. Phys. 118: 9136 (2003)                  
          RI-JK Method:                                     
              A fully direct RI-HF algorithm: Implementation,
              optimised auxiliary basis sets, demonstration of
              accuracy and efficiency                         
              F. Weigend                                      
              Phys. Chem. Chem. Phys. 4: 4285 (2002)           
          Two-component HF and DFT with spin-orbit coupling:  
              Self-consistent treatment of spin-orbit         
              interactions with efficient Hartree-Fock and    
              density functional methods                      
              M. K. Armbruster, F. Weigend, C. van Wüllen and 
              W. Klopper                                      
              Phys. Chem. Chem. Phys. 10: 1748 (2008)         
          Relativistic all-electron 2c calculations           
              An efficient implementation of two-component    
              relativistic exact-decoupling methods for large 
              molecules                                       
              D. Peng, N. Middendorf, F. Weigend, M. Reiher   
              J. Chem. Phys. 138, 184105 (2013)               
                                         


 


              +--------------------------------------------------+
              |      general information about current run       |
              +--------------------------------------------------+

 
 B-P86 functional
 exchange:    LDA + Becke (B88)
 correlation: LDA (VWN) + Perdew (P86)
 A DFT calculation using the RI-J approximation will be carried out.
 Allocatable memory for RI due to $ricore (MB):        2000


              +--------------------------------------------------+
              | Atomic coordinate, charge and isotop information |
              +--------------------------------------------------+

                    atomic coordinates            atom    charge  isotop
         -5.60097103   -0.28892069    0.03501217    o      8.000     0
         -5.35043386   -0.21883346   -1.45447081    h      1.000     0
         -6.74729291   -1.72868896    0.16600577    h      1.000     0
 
       center of nuclear mass  :   -5.65109077   -0.36555524   -0.04099619
       center of nuclear charge:   -5.69054950   -0.42588880   -0.10083677

              +--------------------------------------------------+
              |               basis set information              |
              +--------------------------------------------------+

              we will work with the 1s 3p 5d 7f 9g ... basis set
              ...i.e. with spherical basis functions...

   type   atoms  prim   cont   basis
   ---------------------------------------------------------------------------
    o        1     24     14   def2-SVP   [3s2p1d|7s4p1d]
    h        2      7      5   def2-SVP   [2s1p|4s1p]
   ---------------------------------------------------------------------------
   total:    3     38     24
   ---------------------------------------------------------------------------

   total number of primitive shells          :   17
   total number of contracted shells         :   12
   total number of cartesian basis functions :   25
   total number of SCF-basis functions       :   24


 integral neglect threshold       :  0.13E-08
 integral storage threshold THIZE :  0.10E-04
 integral storage threshold THIME :         5

 RI-J AUXILIARY BASIS SET information:

              we will work with the 1s 3p 5d 7f 9g ... basis set
              ...i.e. with spherical basis functions...

   type   atoms  prim   cont   basis
   ---------------------------------------------------------------------------
    o        1     70     49   def2-SVP   [6s4p3d1f1g|12s5p4d2f1g]
    h        2     16     11   def2-SVP   [3s1p1d|5s2p1d]
   ---------------------------------------------------------------------------
   total:    3    102     71
   ---------------------------------------------------------------------------

   total number of primitive shells          :   32
   total number of contracted shells         :   25
   total number of cartesian basis functions :   85
   total number of SCF-basis functions       :   71


 symmetry group of the molecule :   c1 

 the group has the following generators :
   c1(z)

    1 symmetry operations found

 there are 1 real representations :   a   

 maximum number of shells which are related by symmetry :  1


    mo occupation :
   irrep   mo's   occupied
    a       24        5
 
 number of basis functions   :           24
 number of occupied orbitals :            5
 
  
           ------------------
           density functional
           ------------------
 B-P86 functional
 exchange:    LDA + Becke (B88)
 correlation: LDA (VWN) + Perdew (P86)
 iterations will be done with small grid
  
 spherical integration : Lebedev's spherical grid
 spherical gridsize    :           4
    i.e. gridpoints    :         434
 value for diffuse not defined
 radial integration    : Chebyshev 2nd kind (scaling 3)
 radial gridsize       :           6
 integration cells     :           3
 partition function    : becke
 partition sharpness   :           3
  

 biggest AO integral is expected to be     4.776656448
  
           ------------------------
               RI-J - INFORMATION
           ------------------------
 Contributions to RI integral batches: 
  neglected integral batches:           0
  direct contribution:                  0
  memory contribution:          78
 Memory core needed for (P|Q) and Cholesky      1 MByte
 Memory core minimum needed except of (P|Q)     1 MByte
 Total minimum memory core needed (sum)         1 MByte
  
 ****************************************
 Memory allocated for RI-J     1 MByte
 ****************************************
                                            

          ------------------------
          nuclear repulsion energy  :   10.0087500587    
          ------------------------

 
          -----------------
          -S,T+V- integrals
          -----------------

 1e-integrals will be neglected if expon. factor < 0.133678E-09
 
   Difference densities algorithm switched on.
   The maximal number of linear combinations of
   difference densities is          20 .

 DIIS switched on: error vector is FDS-SDF
 Max. Iterations for DIIS is     :   4
 DIIS matrix (see manual) 
    Scaling factor of diagonals  :  1.200
    threshold for scaling factor :  0.000

 scf convergence criterion : increment of total energy < .1000000D-05
                  and increment of one-electron energy < .1000000D-02


 <geterg> : there is no data group $energy 

  MOs are in ASCII format !


 automatic virtual orbital shift switched on 
      shift if e(lumo)-e(homo) < 0.10000000    


 reading orbital data $scfmo  from file mos
 orbital characterization : expanded
 mo provided and orthogonalized by Cholesky decomposition

 DSCF restart information will be dumped onto file mos


 Starting SCF iterations

          Overall gridpoints after grid construction =          7361

 ITERATION  ENERGY          1e-ENERGY        2e-ENERGY     NORM[dD(SAO)]  TOL
   1  -76.078762583522    -125.26268985     39.175177206    0.000D+00 0.133D-08
                            Exc = -9.52545765407     Coul =  48.7006348602    
                              N = 9.9999796093    
                            current damping = 0.700
 
          max. resid. norm for Fia-block=  3.000D-01 for orbital      4a         
          max. resid. fock norm         =  1.305D+00 for orbital     22a         

 ITERATION  ENERGY          1e-ENERGY        2e-ENERGY     NORM[dD(SAO)]  TOL
   2  -76.277548268516    -124.35815746     38.071859130    0.520D+00 0.884D-09
                            Exc = -9.39328245049     Coul =  47.4651415803    
                              N = 9.9999804292    
                            current damping = 0.650
 
          Norm of current diis error: 0.57392    
          max. resid. norm for Fia-block=  1.516D-01 for orbital      1a         
          max. resid. fock norm         =  1.545D-01 for orbital      1a         

 ITERATION  ENERGY          1e-ENERGY        2e-ENERGY     NORM[dD(SAO)]  TOL
   3  -76.311320766921    -124.62084195     38.300771123    0.167D+00 0.664D-09
                            Exc = -9.44590611290     Coul =  47.7466772356    
                              N = 9.9999812035    
                            current damping = 0.600
 
          Norm of current diis error: 0.26161    
          max. resid. norm for Fia-block=  5.987D-02 for orbital      1a         
          max. resid. fock norm         =  6.169D-02 for orbital      1a         

 ITERATION  ENERGY          1e-ENERGY        2e-ENERGY     NORM[dD(SAO)]  TOL
   4  -76.319699656020    -124.38292343     38.054473711    0.677D-01 0.577D-09
                            Exc = -9.42267102989     Coul =  47.4771447409    
                              N = 9.9999811836    
                            current damping = 0.650
 
          Norm of current diis error: 0.93277E-01
          max. resid. norm for Fia-block=  2.342D-02 for orbital      1a         
          max. resid. fock norm         =  2.390D-02 for orbital      1a         

 ITERATION  ENERGY          1e-ENERGY        2e-ENERGY     NORM[dD(SAO)]  TOL
   5  -76.320901605959    -124.47571624     38.146064572    0.139D-01 0.536D-09
                            Exc = -9.43959899679     Coul =  47.5856635684    
                              N = 9.9999813330    
                            current damping = 0.700
 
          Norm of current diis error: 0.39017E-01
          max. resid. norm for Fia-block=  8.996D-03 for orbital      1a         
          max. resid. fock norm         =  9.298D-03 for orbital      1a         
          mo-orthogonalization: Cholesky decomposition

 ITERATION  ENERGY          1e-ENERGY        2e-ENERGY     NORM[dD(SAO)]  TOL
   6  -76.321117490847    -124.44389686     38.114029307    0.207D-02 0.509D-09
                            Exc = -9.43688870396     Coul =  47.5509180113    
                              N = 9.9999813247    
                            current damping = 0.750
 
          Norm of current diis error: 0.14614E-01
          max. resid. norm for Fia-block=  3.791D-03 for orbital      1a         
          max. resid. fock norm         =  3.881D-03 for orbital      1a         

 ITERATION  ENERGY          1e-ENERGY        2e-ENERGY     NORM[dD(SAO)]  TOL
   7  -76.321149232546    -124.44921294     38.119313653    0.270D-03 0.490D-09
                            Exc = -9.43827514133     Coul =  47.5575887946    
                              N = 9.9999813335    
                            current damping = 0.800
 
          Norm of current diis error: 0.63116E-02
          max. resid. norm for Fia-block=  1.607D-03 for orbital      1a         
          max. resid. fock norm         =  1.653D-03 for orbital      1a         

 ITERATION  ENERGY          1e-ENERGY        2e-ENERGY     NORM[dD(SAO)]  TOL
   8  -76.321155156704    -124.44808770     38.118182486    0.259D-04 0.476D-09
                            Exc = -9.43839831636     Coul =  47.5565808019    
                              N = 9.9999813346    
                            current damping = 0.850
 
          Norm of current diis error: 0.27586E-02
          max. resid. norm for Fia-block=  7.200D-04 for orbital      1a         
          max. resid. fock norm         =  7.382D-04 for orbital      1a         

 ENERGY CONVERGED !

          Overall gridpoints after grid construction =         28289

 ITERATION  ENERGY          1e-ENERGY        2e-ENERGY     NORM[dD(SAO)]  TOL
   9  -76.321156692963    -124.44908401     38.119177260    0.665D-05 0.462D-09
                            Exc = -9.43865331253     Coul =  47.5578305729    
                              N = 10.000000005    
                            current damping = 0.900
 
          Norm of current diis error: 0.12893E-02
          max. resid. norm for Fia-block=  3.259D-04 for orbital      1a         
          max. resid. fock norm         =  3.368D-04 for orbital      1a         

 End of SCF iterations

   convergence criteria satisfied after    9 iterations


                  ------------------------------------------ 
                 |  total energy      =    -76.32115669296  |
                  ------------------------------------------ 
                 :  kinetic energy    =     76.16537538003  :
                 :  potential energy  =   -152.48653207299  :
                 :  virial theorem    =      1.99795887117  :
                 :  wavefunction norm =      1.00000000000  :
                  .......................................... 


 <geterg> : there is no data group $energy 


 <skperg> : $end is missing 


 orbitals $scfmo  will be written to file mos

    irrep                  1a          2a          3a          4a          5a   
 eigenvalues H        -18.74709    -0.93729    -0.48407    -0.31828    -0.24084
            eV        -510.1384    -25.5052    -13.1724     -8.6608     -6.5538
 occupation              2.0000      2.0000      2.0000      2.0000      2.0000 

    irrep                  6a          7a          8a          9a         10a   
 eigenvalues H          0.04275     0.13481     0.52260     0.71529     0.85782
            eV           1.1633      3.6684     14.2208     19.4641     23.3426
 
 
 
 
 ==============================================================================
                           electrostatic moments
 ==============================================================================

 reference point for electrostatic moments:    0.00000   0.00000   0.00000

 
              nuc           elec       ->  total
 ------------------------------------------------------------------------------
                          charge      
 ------------------------------------------------------------------------------
          10.000000     -10.000000      -0.000000
 
 ------------------------------------------------------------------------------
                       dipole moment  
 ------------------------------------------------------------------------------
   x     -56.905495      56.607797      -0.297698
   y      -4.258888       3.790418      -0.468470
   z      -1.008368       0.477635      -0.530733
 
   | dipole moment | =     0.7680 a.u. =     1.9520 debye 
 
 ------------------------------------------------------------------------------
                     quadrupole moment
 ------------------------------------------------------------------------------
  xx     325.120116    -326.220670      -1.100554
  yy       3.704055      -7.560966      -3.856911
  zz       2.152850      -6.096886      -3.944036
  xy      25.780716     -22.299831       3.480885
  xz       5.093143      -2.431476       2.661667
  yz      -0.049611      -0.000357      -0.049969
 
     1/3  trace=      -2.967167
     anisotropy=       8.090478
 
 ==============================================================================
 


    ------------------------------------------------------------------------
         total  cpu-time :   0.23 seconds
         total wall-time :   0.24 seconds
    ------------------------------------------------------------------------

   ****  ridft : all done  ****


    2020-12-01 10:45:08.785 

--- PyADF *** new job *** PyADF ---
 operating system is UNIX !
 hostname is nitrogen02

 ridft (nitrogen02) : TURBOMOLE V7.1 ( 20661 ) 10 Jun 2016 at 08:56:48
 Copyright (C) 2016 TURBOMOLE GmbH, Karlsruhe


    2020-12-01 10:45:09.018 



                                  r i d f t

                        DFT program with RI approximation 
                                for coulomb part 




                                                 
                                 References:     
                                                 
          TURBOMOLE:                             
              R. Ahlrichs, M. Baer, M. Haeser, H. Horn, and
              C. Koelmel
              Electronic structure calculations on workstation
              computers: the program system TURBOMOLE
              Chem. Phys. Lett. 162: 165 (1989)
          Density Functional:                              
              O. Treutler and R. Ahlrichs                      
              Efficient Molecular Numerical Integration Schemes
              J. Chem. Phys. 102: 346 (1995)                   
          Parallel Version:                                
              Performance of parallel TURBOMOLE for Density    
              Functional Calculations                          
              M. v. Arnim and R. Ahlrichs                      
              J. Comp. Chem. 19: 1746 (1998)                   
          RI-J Method:                                     
              Auxiliary Basis Sets to approximate Coulomb      
              Potentials                                       
              Chem. Phys. Lett. 240: 283 (1995)                
              K. Eichkorn, O. Treutler, H. Oehm, M. Haeser     
              and R. Ahlrichs                                  
              Chem. Phys. Lett. 242: 652 (1995)                
                                                           
              Auxiliary Basis Sets for Main Row Atoms and their
              Use to approximate Coulomb Potentials            
              K. Eichkorn, F. Weigend, O. Treutler and         
              R. Ahlrichs                                      
              Theo. Chem. Acc. 97: 119 (1997)                   
                                                           
              Accurate Coulomb-fitting basis sets for H to Rn 
              F. Weigend                                        
              Phys. Chem. Chem. Phys. 8: 1057 (2006)            
                                                           
          Multipole accelerated RI-J (MARI-J):             
              Fast evaluation of the Coulomb potential for     
              electron densities using multipole accelerated   
              resolution of identity approximation             
              M. Sierka, A. Hogekamp and R. Ahlrichs           
              J. Chem. Phys. 118: 9136 (2003)                  
          RI-JK Method:                                     
              A fully direct RI-HF algorithm: Implementation,
              optimised auxiliary basis sets, demonstration of
              accuracy and efficiency                         
              F. Weigend                                      
              Phys. Chem. Chem. Phys. 4: 4285 (2002)           
          Two-component HF and DFT with spin-orbit coupling:  
              Self-consistent treatment of spin-orbit         
              interactions with efficient Hartree-Fock and    
              density functional methods                      
              M. K. Armbruster, F. Weigend, C. van Wüllen and 
              W. Klopper                                      
              Phys. Chem. Chem. Phys. 10: 1748 (2008)         
          Relativistic all-electron 2c calculations           
              An efficient implementation of two-component    
              relativistic exact-decoupling methods for large 
              molecules                                       
              D. Peng, N. Middendorf, F. Weigend, M. Reiher   
              J. Chem. Phys. 138, 184105 (2013)               
                                         


 


              +--------------------------------------------------+
              |      general information about current run       |
              +--------------------------------------------------+

 
 B-P86 functional
 exchange:    LDA + Becke (B88)
 correlation: LDA (VWN) + Perdew (P86)
 A DFT calculation using the RI-J approximation will be carried out.
 Allocatable memory for RI due to $ricore (MB):        2000


              +--------------------------------------------------+
              | Atomic coordinate, charge and isotop information |
              +--------------------------------------------------+

                    atomic coordinates            atom    charge  isotop
         -5.61165239   -0.29923510    0.05475093    o      8.000     0
         -5.29554921   -0.19987514   -1.75925618    h      1.000     0
         -6.63266506   -1.58394622    0.15752137    h      1.000     0
 
       center of nuclear mass  :   -5.65109254   -0.36555627   -0.04099387
       center of nuclear charge:   -5.68214334   -0.41777021   -0.11637273

              +--------------------------------------------------+
              |               basis set information              |
              +--------------------------------------------------+

              we will work with the 1s 3p 5d 7f 9g ... basis set
              ...i.e. with spherical basis functions...

   type   atoms  prim   cont   basis
   ---------------------------------------------------------------------------
    o        1     24     14   def2-SVP   [3s2p1d|7s4p1d]
    h        2      7      5   def2-SVP   [2s1p|4s1p]
   ---------------------------------------------------------------------------
   total:    3     38     24
   ---------------------------------------------------------------------------

   total number of primitive shells          :   17
   total number of contracted shells         :   12
   total number of cartesian basis functions :   25
   total number of SCF-basis functions       :   24


 integral neglect threshold       :  0.13E-08
 integral storage threshold THIZE :  0.10E-04
 integral storage threshold THIME :         5

 RI-J AUXILIARY BASIS SET information:

              we will work with the 1s 3p 5d 7f 9g ... basis set
              ...i.e. with spherical basis functions...

   type   atoms  prim   cont   basis
   ---------------------------------------------------------------------------
    o        1     70     49   def2-SVP   [6s4p3d1f1g|12s5p4d2f1g]
    h        2     16     11   def2-SVP   [3s1p1d|5s2p1d]
   ---------------------------------------------------------------------------
   total:    3    102     71
   ---------------------------------------------------------------------------

   total number of primitive shells          :   32
   total number of contracted shells         :   25
   total number of cartesian basis functions :   85
   total number of SCF-basis functions       :   71


 symmetry group of the molecule :   c1 

 the group has the following generators :
   c1(z)

    1 symmetry operations found

 there are 1 real representations :   a   

 maximum number of shells which are related by symmetry :  1


    mo occupation :
   irrep   mo's   occupied
    a       24        5
 
 number of basis functions   :           24
 number of occupied orbitals :            5
 
  
           ------------------
           density functional
           ------------------
 B-P86 functional
 exchange:    LDA + Becke (B88)
 correlation: LDA (VWN) + Perdew (P86)
 iterations will be done with small grid
  
 spherical integration : Lebedev's spherical grid
 spherical gridsize    :           4
    i.e. gridpoints    :         434
 value for diffuse not defined
 radial integration    : Chebyshev 2nd kind (scaling 3)
 radial gridsize       :           6
 integration cells     :           3
 partition function    : becke
 partition sharpness   :           3
  

 biggest AO integral is expected to be     4.776656448
  
           ------------------------
               RI-J - INFORMATION
           ------------------------
 Contributions to RI integral batches: 
  neglected integral batches:           0
  direct contribution:                  0
  memory contribution:          78
 Memory core needed for (P|Q) and Cholesky      1 MByte
 Memory core minimum needed except of (P|Q)     1 MByte
 Total minimum memory core needed (sum)         1 MByte
  
 ****************************************
 Memory allocated for RI-J     1 MByte
 ****************************************
                                            

          ------------------------
          nuclear repulsion energy  :   9.57199214108    
          ------------------------

 
          -----------------
          -S,T+V- integrals
          -----------------

 1e-integrals will be neglected if expon. factor < 0.133678E-09
 
   Difference densities algorithm switched on.
   The maximal number of linear combinations of
   difference densities is          20 .

 DIIS switched on: error vector is FDS-SDF
 Max. Iterations for DIIS is     :   4
 DIIS matrix (see manual) 
    Scaling factor of diagonals  :  1.200
    threshold for scaling factor :  0.000

 scf convergence criterion : increment of total energy < .1000000D-05
                  and increment of one-electron energy < .1000000D-02


 <geterg> : there is no data group $energy 

  MOs are in ASCII format !


 automatic virtual orbital shift switched on 
      shift if e(lumo)-e(homo) < 0.10000000    


 reading orbital data $scfmo  from file mos
 orbital characterization : scfconv=6

 DSCF restart information will be dumped onto file mos


 Starting SCF iterations

          Overall gridpoints after grid construction =          7367

 ITERATION  ENERGY          1e-ENERGY        2e-ENERGY     NORM[dD(SAO)]  TOL
   1  -76.337083252974    -123.76959796     37.860522563    0.000D+00 0.133D-08
                            Exc = -9.40530887420     Coul =  47.2658314372    
                              N = 9.9999918536    
                            current damping = 0.700
 
          max. resid. norm for Fia-block=  6.872D-02 for orbital      2a         
          max. resid. fock norm         =  2.079D-01 for orbital     24a         

 ITERATION  ENERGY          1e-ENERGY        2e-ENERGY     NORM[dD(SAO)]  TOL
   2  -76.348853624116    -123.71108902     37.790243254    0.160D+00 0.850D-09
                            Exc = -9.39504044735     Coul =  47.1852837014    
                              N = 9.9999923217    
                            current damping = 0.650
 
          Norm of current diis error: 0.97055E-01
          max. resid. norm for Fia-block=  2.441D-02 for orbital      2a         
          max. resid. fock norm         =  1.290D-01 for orbital     19a         

 ITERATION  ENERGY          1e-ENERGY        2e-ENERGY     NORM[dD(SAO)]  TOL
   3  -76.350538197795    -123.75985929     37.837328954    0.258D-01 0.667D-09
                            Exc = -9.40133772378     Coul =  47.2386666782    
                              N = 9.9999924811    
                            current damping = 0.600
 
          Norm of current diis error: 0.40955E-01
          max. resid. norm for Fia-block=  1.056D-02 for orbital      3a         
          max. resid. fock norm         =  4.062D-02 for orbital      8a         

 ITERATION  ENERGY          1e-ENERGY        2e-ENERGY     NORM[dD(SAO)]  TOL
   4  -76.350815724312    -123.70700673     37.784198866    0.102D-01 0.606D-09
                            Exc = -9.39420850873     Coul =  47.1784073744    
                              N = 9.9999925157    
                            current damping = 0.650
 
          Norm of current diis error: 0.17884E-01
          max. resid. norm for Fia-block=  3.952D-03 for orbital      3a         
          max. resid. fock norm         =  1.612D-02 for orbital      8a         

 ITERATION  ENERGY          1e-ENERGY        2e-ENERGY     NORM[dD(SAO)]  TOL
   5  -76.350862581588    -123.73384161     37.810986884    0.211D-02 0.581D-09
                            Exc = -9.39782241893     Coul =  47.2088093031    
                              N = 9.9999925525    
                            current damping = 0.700
 
          Norm of current diis error: 0.56959E-02
          max. resid. norm for Fia-block=  1.499D-03 for orbital      3a         
          max. resid. fock norm         =  6.118D-03 for orbital      8a         
          mo-orthogonalization: Cholesky decomposition

 ITERATION  ENERGY          1e-ENERGY        2e-ENERGY     NORM[dD(SAO)]  TOL
   6  -76.350868628962    -123.72874931     37.805888537    0.771D-04 0.557D-09
                            Exc = -9.39714271385     Coul =  47.2030312509    
                              N = 9.9999925599    
                            current damping = 0.750
 
          Norm of current diis error: 0.22070E-02
          max. resid. norm for Fia-block=  5.937D-04 for orbital      3a         
          max. resid. fock norm         =  2.563D-03 for orbital      8a         

 ENERGY CONVERGED !

          Overall gridpoints after grid construction =         28291

 ITERATION  ENERGY          1e-ENERGY        2e-ENERGY     NORM[dD(SAO)]  TOL
   7  -76.350863651016    -123.72860895     37.805753155    0.122D-04 0.531D-09
                            Exc = -9.39712111607     Coul =  47.2028742715    
                              N = 10.000000010    
                            current damping = 0.600
 
          Norm of current diis error: 0.95642E-03
          max. resid. norm for Fia-block=  2.598D-04 for orbital      3a         
          max. resid. fock norm         =  1.091D-03 for orbital      8a         

 End of SCF iterations

   convergence criteria satisfied after    7 iterations


                  ------------------------------------------ 
                 |  total energy      =    -76.35086365102  |
                  ------------------------------------------ 
                 :  kinetic energy    =     75.97849492755  :
                 :  potential energy  =   -152.32935857856  :
                 :  virial theorem    =      1.99512292716  :
                 :  wavefunction norm =      1.00000000000  :
                  .......................................... 


 <geterg> : there is no data group $energy 


 <skperg> : $end is missing 


 orbitals $scfmo  will be written to file mos

    irrep                  1a          2a          3a          4a          5a   
 eigenvalues H        -18.75352    -0.91590    -0.47230    -0.31602    -0.23741
            eV        -510.3132    -24.9232    -12.8520     -8.5994     -6.4602
 occupation              2.0000      2.0000      2.0000      2.0000      2.0000 

    irrep                  6a          7a          8a          9a         10a   
 eigenvalues H          0.03953     0.12389     0.52131     0.64381     0.86145
            eV           1.0756      3.3714     14.1857     17.5191     23.4414
 
 
 
 
 ==============================================================================
                           electrostatic moments
 ==============================================================================

 reference point for electrostatic moments:    0.00000   0.00000   0.00000

 
              nuc           elec       ->  total
 ------------------------------------------------------------------------------
                          charge      
 ------------------------------------------------------------------------------
          10.000000     -10.000000      -0.000000
 
 ------------------------------------------------------------------------------
                       dipole moment  
 ------------------------------------------------------------------------------
   x     -56.821433      56.555989      -0.265444
   y      -4.177702       3.742000      -0.435703
   z      -1.163727       0.583031      -0.580696
 
   | dipole moment | =     0.7730 a.u. =     1.9647 debye 
 
 ------------------------------------------------------------------------------
                     quadrupole moment
 ------------------------------------------------------------------------------
  xx     323.960228    -325.548043      -1.587815
  yy       3.265169      -7.322048      -4.056879
  zz       3.143777      -6.832741      -3.688965
  xy      24.997860     -21.805171       3.192689
  xz       5.813496      -2.920442       2.893053
  yz      -0.028941      -0.015686      -0.044627
 
     1/3  trace=      -3.111220
     anisotropy=       7.811420
 
 ==============================================================================
 


    ------------------------------------------------------------------------
         total  cpu-time :   0.20 seconds
         total wall-time :   0.20 seconds
    ------------------------------------------------------------------------

   ****  ridft : all done  ****


    2020-12-01 10:45:09.220 

--- PyADF *** new job *** PyADF ---
 operating system is UNIX !
 hostname is nitrogen02

 ridft (nitrogen02) : TURBOMOLE V7.1 ( 20661 ) 10 Jun 2016 at 08:56:48
 Copyright (C) 2016 TURBOMOLE GmbH, Karlsruhe


    2020-12-01 10:45:09.397 



                                  r i d f t

                        DFT program with RI approximation 
                                for coulomb part 




                                                 
                                 References:     
                                                 
          TURBOMOLE:                             
              R. Ahlrichs, M. Baer, M. Haeser, H. Horn, and
              C. Koelmel
              Electronic structure calculations on workstation
              computers: the program system TURBOMOLE
              Chem. Phys. Lett. 162: 165 (1989)
          Density Functional:                              
              O. Treutler and R. Ahlrichs                      
              Efficient Molecular Numerical Integration Schemes
              J. Chem. Phys. 102: 346 (1995)                   
          Parallel Version:                                
              Performance of parallel TURBOMOLE for Density    
              Functional Calculations                          
              M. v. Arnim and R. Ahlrichs                      
              J. Comp. Chem. 19: 1746 (1998)                   
          RI-J Method:                                     
              Auxiliary Basis Sets to approximate Coulomb      
              Potentials                                       
              Chem. Phys. Lett. 240: 283 (1995)                
              K. Eichkorn, O. Treutler, H. Oehm, M. Haeser     
              and R. Ahlrichs                                  
              Chem. Phys. Lett. 242: 652 (1995)                
                                                           
              Auxiliary Basis Sets for Main Row Atoms and their
              Use to approximate Coulomb Potentials            
              K. Eichkorn, F. Weigend, O. Treutler and         
              R. Ahlrichs                                      
              Theo. Chem. Acc. 97: 119 (1997)                   
                                                           
              Accurate Coulomb-fitting basis sets for H to Rn 
              F. Weigend                                        
              Phys. Chem. Chem. Phys. 8: 1057 (2006)            
                                                           
          Multipole accelerated RI-J (MARI-J):             
              Fast evaluation of the Coulomb potential for     
              electron densities using multipole accelerated   
              resolution of identity approximation             
              M. Sierka, A. Hogekamp and R. Ahlrichs           
              J. Chem. Phys. 118: 9136 (2003)                  
          RI-JK Method:                                     
              A fully direct RI-HF algorithm: Implementation,
              optimised auxiliary basis sets, demonstration of
              accuracy and efficiency                         
              F. Weigend                                      
              Phys. Chem. Chem. Phys. 4: 4285 (2002)           
          Two-component HF and DFT with spin-orbit coupling:  
              Self-consistent treatment of spin-orbit         
              interactions with efficient Hartree-Fock and    
              density functional methods                      
              M. K. Armbruster, F. Weigend, C. van Wüllen and 
              W. Klopper                                      
              Phys. Chem. Chem. Phys. 10: 1748 (2008)         
          Relativistic all-electron 2c calculations           
              An efficient implementation of two-component    
              relativistic exact-decoupling methods for large 
              molecules                                       
              D. Peng, N. Middendorf, F. Weigend, M. Reiher   
              J. Chem. Phys. 138, 184105 (2013)               
                                         


 


              +--------------------------------------------------+
              |      general information about current run       |
              +--------------------------------------------------+

 
 B-P86 functional
 exchange:    LDA + Becke (B88)
 correlation: LDA (VWN) + Perdew (P86)
 A DFT calculation using the RI-J approximation will be carried out.
 Allocatable memory for RI due to $ricore (MB):        2000


              +--------------------------------------------------+
              | Atomic coordinate, charge and isotop information |
              +--------------------------------------------------+

                    atomic coordinates            atom    charge  isotop
         -5.57867086   -0.24855645    0.10626533    o      8.000     0
         -5.73037735   -0.77248357   -1.86766654    h      1.000     0
         -6.72126156   -1.81564004   -0.55162104    h      1.000     0
 
       center of nuclear mass  :   -5.65108763   -0.36554986   -0.04098662
       center of nuclear charge:   -5.70810058   -0.45765752   -0.15691650

              +--------------------------------------------------+
              |               basis set information              |
              +--------------------------------------------------+

              we will work with the 1s 3p 5d 7f 9g ... basis set
              ...i.e. with spherical basis functions...

   type   atoms  prim   cont   basis
   ---------------------------------------------------------------------------
    o        1     24     14   def2-SVP   [3s2p1d|7s4p1d]
    h        2      7      5   def2-SVP   [2s1p|4s1p]
   ---------------------------------------------------------------------------
   total:    3     38     24
   ---------------------------------------------------------------------------

   total number of primitive shells          :   17
   total number of contracted shells         :   12
   total number of cartesian basis functions :   25
   total number of SCF-basis functions       :   24


 integral neglect threshold       :  0.13E-08
 integral storage threshold THIZE :  0.10E-04
 integral storage threshold THIME :         5

 RI-J AUXILIARY BASIS SET information:

              we will work with the 1s 3p 5d 7f 9g ... basis set
              ...i.e. with spherical basis functions...

   type   atoms  prim   cont   basis
   ---------------------------------------------------------------------------
    o        1     70     49   def2-SVP   [6s4p3d1f1g|12s5p4d2f1g]
    h        2     16     11   def2-SVP   [3s1p1d|5s2p1d]
   ---------------------------------------------------------------------------
   total:    3    102     71
   ---------------------------------------------------------------------------

   total number of primitive shells          :   32
   total number of contracted shells         :   25
   total number of cartesian basis functions :   85
   total number of SCF-basis functions       :   71


 symmetry group of the molecule :   c1 

 the group has the following generators :
   c1(z)

    1 symmetry operations found

 there are 1 real representations :   a   

 maximum number of shells which are related by symmetry :  1


    mo occupation :
   irrep   mo's   occupied
    a       24        5
 
 number of basis functions   :           24
 number of occupied orbitals :            5
 
  
           ------------------
           density functional
           ------------------
 B-P86 functional
 exchange:    LDA + Becke (B88)
 correlation: LDA (VWN) + Perdew (P86)
 iterations will be done with small grid
  
 spherical integration : Lebedev's spherical grid
 spherical gridsize    :           4
    i.e. gridpoints    :         434
 value for diffuse not defined
 radial integration    : Chebyshev 2nd kind (scaling 3)
 radial gridsize       :           6
 integration cells     :           3
 partition function    : becke
 partition sharpness   :           3
  

 biggest AO integral is expected to be     4.776656448
  
           ------------------------
               RI-J - INFORMATION
           ------------------------
 Contributions to RI integral batches: 
  neglected integral batches:           0
  direct contribution:                  0
  memory contribution:          78
 Memory core needed for (P|Q) and Cholesky      1 MByte
 Memory core minimum needed except of (P|Q)     1 MByte
 Total minimum memory core needed (sum)         1 MByte
  
 ****************************************
 Memory allocated for RI-J     1 MByte
 ****************************************
                                            

          ------------------------
          nuclear repulsion energy  :   8.32563698220    
          ------------------------

 
          -----------------
          -S,T+V- integrals
          -----------------

 1e-integrals will be neglected if expon. factor < 0.133678E-09
 
   Difference densities algorithm switched on.
   The maximal number of linear combinations of
   difference densities is          20 .

 DIIS switched on: error vector is FDS-SDF
 Max. Iterations for DIIS is     :   4
 DIIS matrix (see manual) 
    Scaling factor of diagonals  :  1.200
    threshold for scaling factor :  0.000

 scf convergence criterion : increment of total energy < .1000000D-05
                  and increment of one-electron energy < .1000000D-02


 <geterg> : there is no data group $energy 

  MOs are in ASCII format !


 automatic virtual orbital shift switched on 
      shift if e(lumo)-e(homo) < 0.10000000    


 reading orbital data $scfmo  from file mos
 orbital characterization : scfconv=6

 DSCF restart information will be dumped onto file mos


 Starting SCF iterations

          Overall gridpoints after grid construction =          7379

 ITERATION  ENERGY          1e-ENERGY        2e-ENERGY     NORM[dD(SAO)]  TOL
   1  -76.231019632966    -121.75133299     37.194676376    0.000D+00 0.133D-08
                            Exc = -9.33586913589     Coul =  46.5305455122    
                              N = 9.9999779346    
                            current damping = 0.700
 
          max. resid. norm for Fia-block=  1.354D-01 for orbital      3a         
          max. resid. fock norm         =  4.918D-01 for orbital     23a         

 ITERATION  ENERGY          1e-ENERGY        2e-ENERGY     NORM[dD(SAO)]  TOL
   2  -76.284294069843    -120.94640337     36.336472313    0.400D+00 0.858D-09
                            Exc = -9.22202017541     Coul =  45.5584924889    
                              N = 9.9999789768    
                            current damping = 0.650
 
          Norm of current diis error: 0.25805    
          max. resid. norm for Fia-block=  6.097D-02 for orbital      3a         
          max. resid. fock norm         =  2.026D-01 for orbital     14a         

 ITERATION  ENERGY          1e-ENERGY        2e-ENERGY     NORM[dD(SAO)]  TOL
   3  -76.295566947092    -121.51804746     36.896843531    0.160D+00 0.698D-09
                            Exc = -9.29326831314     Coul =  46.1901118437    
                              N = 9.9999791750    
                            current damping = 0.600
 
          Norm of current diis error: 0.13198    
          max. resid. norm for Fia-block=  2.684D-02 for orbital      3a         
          max. resid. fock norm         =  6.965D-02 for orbital     15a         

 ITERATION  ENERGY          1e-ENERGY        2e-ENERGY     NORM[dD(SAO)]  TOL
   4  -76.298733023283    -121.25910711     36.634737105    0.351D-01 0.625D-09
                            Exc = -9.26067567953     Coul =  45.8954127848    
                              N = 9.9999793490    
                            current damping = 0.650
 
          Norm of current diis error: 0.31616E-01
          max. resid. norm for Fia-block=  9.182D-03 for orbital      4a         
          max. resid. fock norm         =  2.718D-02 for orbital      8a         

 ITERATION  ENERGY          1e-ENERGY        2e-ENERGY     NORM[dD(SAO)]  TOL
   5  -76.298994602061    -121.26150948     36.636877900    0.533D-02 0.580D-09
                            Exc = -9.26069811217     Coul =  45.8975760125    
                              N = 9.9999793891    
                            current damping = 0.700
 
          Norm of current diis error: 0.12190E-01
          max. resid. norm for Fia-block=  3.409D-03 for orbital      3a         
          max. resid. fock norm         =  1.095D-02 for orbital      8a         
          mo-orthogonalization: Cholesky decomposition

 ITERATION  ENERGY          1e-ENERGY        2e-ENERGY     NORM[dD(SAO)]  TOL
   6  -76.299035458133    -121.25870018     36.634027744    0.281D-03 0.550D-09
                            Exc = -9.26035932187     Coul =  45.8943870657    
                              N = 9.9999794051    
                            current damping = 0.750
 
          Norm of current diis error: 0.51092E-02
          max. resid. norm for Fia-block=  1.387D-03 for orbital      3a         
          max. resid. fock norm         =  4.542D-03 for orbital      8a         

 ITERATION  ENERGY          1e-ENERGY        2e-ENERGY     NORM[dD(SAO)]  TOL
   7  -76.299042344201    -121.26001456     36.635335229    0.425D-04 0.522D-09
                            Exc = -9.26052988909     Coul =  45.8958651183    
                              N = 9.9999794102    
                            current damping = 0.800
 
          Norm of current diis error: 0.21545E-02
          max. resid. norm for Fia-block=  6.177D-04 for orbital      4a         
          max. resid. fock norm         =  1.915D-03 for orbital      8a         

 ENERGY CONVERGED !

          Overall gridpoints after grid construction =         28359

 ITERATION  ENERGY          1e-ENERGY        2e-ENERGY     NORM[dD(SAO)]  TOL
   8  -76.299046395341    -121.25807864     36.633395258    0.410D-04 0.509D-09
                            Exc = -9.26028333301     Coul =  45.8936785911    
                              N = 10.000000092    
                            current damping = 0.850
 
          Norm of current diis error: 0.11063E-02
          max. resid. norm for Fia-block=  2.889D-04 for orbital      4a         
          max. resid. fock norm         =  8.805D-04 for orbital      8a         

 End of SCF iterations

   convergence criteria satisfied after    8 iterations


                  ------------------------------------------ 
                 |  total energy      =    -76.29904639534  |
                  ------------------------------------------ 
                 :  kinetic energy    =     75.66421547298  :
                 :  potential energy  =   -151.96326186832  :
                 :  virial theorem    =      1.99167970044  :
                 :  wavefunction norm =      1.00000000000  :
                  .......................................... 


 <geterg> : there is no data group $energy 


 <skperg> : $end is missing 


 orbitals $scfmo  will be written to file mos

    irrep                  1a          2a          3a          4a          5a   
 eigenvalues H        -18.79361    -0.89484    -0.41272    -0.33801    -0.23964
            eV        -511.4041    -24.3500    -11.2307     -9.1977     -6.5210
 occupation              2.0000      2.0000      2.0000      2.0000      2.0000 

    irrep                  6a          7a          8a          9a         10a   
 eigenvalues H         -0.03619     0.07104     0.41946     0.46404     0.83652
            eV          -0.9847      1.9332     11.4142     12.6272     22.7629
 
 
 
 
 ==============================================================================
                           electrostatic moments
 ==============================================================================

 reference point for electrostatic moments:    0.00000   0.00000   0.00000

 
              nuc           elec       ->  total
 ------------------------------------------------------------------------------
                          charge      
 ------------------------------------------------------------------------------
          10.000000     -10.000000       0.000000
 
 ------------------------------------------------------------------------------
                       dipole moment  
 ------------------------------------------------------------------------------
   x     -57.081006      56.737310      -0.343696
   y      -4.576575       4.021359      -0.555216
   z      -1.569165       0.870457      -0.698708
 
   | dipole moment | =     0.9563 a.u. =     2.4308 debye 
 
 ------------------------------------------------------------------------------
                     quadrupole moment
 ------------------------------------------------------------------------------
  xx     326.985130    -328.021601      -1.036471
  yy       4.387522      -8.436458      -4.048936
  zz       3.882803      -7.741950      -3.859147
  xy      27.722931     -23.826349       3.896582
  xz       9.667469      -5.373232       4.294237
  yz       2.232984      -1.287830       0.945153
 
     1/3  trace=      -2.981518
     anisotropy=      10.587287
 
 ==============================================================================
 


    ------------------------------------------------------------------------
         total  cpu-time :   0.22 seconds
         total wall-time :   0.22 seconds
    ------------------------------------------------------------------------

   ****  ridft : all done  ****


    2020-12-01 10:45:09.613 

--- PyADF *** new job *** PyADF ---
 operating system is UNIX !
 hostname is nitrogen02

 ridft (nitrogen02) : TURBOMOLE V7.1 ( 20661 ) 10 Jun 2016 at 08:56:48
 Copyright (C) 2016 TURBOMOLE GmbH, Karlsruhe


    2020-12-01 10:45:09.798 



                                  r i d f t

                        DFT program with RI approximation 
                                for coulomb part 




                                                 
                                 References:     
                                                 
          TURBOMOLE:                             
              R. Ahlrichs, M. Baer, M. Haeser, H. Horn, and
              C. Koelmel
              Electronic structure calculations on workstation
              computers: the program system TURBOMOLE
              Chem. Phys. Lett. 162: 165 (1989)
          Density Functional:                              
              O. Treutler and R. Ahlrichs                      
              Efficient Molecular Numerical Integration Schemes
              J. Chem. Phys. 102: 346 (1995)                   
          Parallel Version:                                
              Performance of parallel TURBOMOLE for Density    
              Functional Calculations                          
              M. v. Arnim and R. Ahlrichs                      
              J. Comp. Chem. 19: 1746 (1998)                   
          RI-J Method:                                     
              Auxiliary Basis Sets to approximate Coulomb      
              Potentials                                       
              Chem. Phys. Lett. 240: 283 (1995)                
              K. Eichkorn, O. Treutler, H. Oehm, M. Haeser     
              and R. Ahlrichs                                  
              Chem. Phys. Lett. 242: 652 (1995)                
                                                           
              Auxiliary Basis Sets for Main Row Atoms and their
              Use to approximate Coulomb Potentials            
              K. Eichkorn, F. Weigend, O. Treutler and         
              R. Ahlrichs                                      
              Theo. Chem. Acc. 97: 119 (1997)                   
                                                           
              Accurate Coulomb-fitting basis sets for H to Rn 
              F. Weigend                                        
              Phys. Chem. Chem. Phys. 8: 1057 (2006)            
                                                           
          Multipole accelerated RI-J (MARI-J):             
              Fast evaluation of the Coulomb potential for     
              electron densities using multipole accelerated   
              resolution of identity approximation             
              M. Sierka, A. Hogekamp and R. Ahlrichs           
              J. Chem. Phys. 118: 9136 (2003)                  
          RI-JK Method:                                     
              A fully direct RI-HF algorithm: Implementation,
              optimised auxiliary basis sets, demonstration of
              accuracy and efficiency                         
              F. Weigend                                      
              Phys. Chem. Chem. Phys. 4: 4285 (2002)           
          Two-component HF and DFT with spin-orbit coupling:  
              Self-consistent treatment of spin-orbit         
              interactions with efficient Hartree-Fock and    
              density functional methods                      
              M. K. Armbruster, F. Weigend, C. van Wüllen and 
              W. Klopper                                      
              Phys. Chem. Chem. Phys. 10: 1748 (2008)         
          Relativistic all-electron 2c calculations           
              An efficient implementation of two-component    
              relativistic exact-decoupling methods for large 
              molecules                                       
              D. Peng, N. Middendorf, F. Weigend, M. Reiher   
              J. Chem. Phys. 138, 184105 (2013)               
                                         


 


              +--------------------------------------------------+
              |      general information about current run       |
              +--------------------------------------------------+

 
 B-P86 functional
 exchange:    LDA + Becke (B88)
 correlation: LDA (VWN) + Perdew (P86)
 A DFT calculation using the RI-J approximation will be carried out.
 Allocatable memory for RI due to $ricore (MB):        2000


              +--------------------------------------------------+
              | Atomic coordinate, charge and isotop information |
              +--------------------------------------------------+

                    atomic coordinates            atom    charge  isotop
         -5.63512795   -0.33976369   -0.00853268    o      8.000     0
         -4.77379139    0.48670094   -1.63219851    h      1.000     0
         -6.78186102   -1.62731722    1.03480654    h      1.000     0
 
       center of nuclear mass  :   -5.65109607   -0.36556191   -0.04100233
       center of nuclear charge:   -5.66366760   -0.38587258   -0.06656534

              +--------------------------------------------------+
              |               basis set information              |
              +--------------------------------------------------+

              we will work with the 1s 3p 5d 7f 9g ... basis set
              ...i.e. with spherical basis functions...

   type   atoms  prim   cont   basis
   ---------------------------------------------------------------------------
    o        1     24     14   def2-SVP   [3s2p1d|7s4p1d]
    h        2      7      5   def2-SVP   [2s1p|4s1p]
   ---------------------------------------------------------------------------
   total:    3     38     24
   ---------------------------------------------------------------------------

   total number of primitive shells          :   17
   total number of contracted shells         :   12
   total number of cartesian basis functions :   25
   total number of SCF-basis functions       :   24


 integral neglect threshold       :  0.13E-08
 integral storage threshold THIZE :  0.10E-04
 integral storage threshold THIME :         5

 RI-J AUXILIARY BASIS SET information:

              we will work with the 1s 3p 5d 7f 9g ... basis set
              ...i.e. with spherical basis functions...

   type   atoms  prim   cont   basis
   ---------------------------------------------------------------------------
    o        1     70     49   def2-SVP   [6s4p3d1f1g|12s5p4d2f1g]
    h        2     16     11   def2-SVP   [3s1p1d|5s2p1d]
   ---------------------------------------------------------------------------
   total:    3    102     71
   ---------------------------------------------------------------------------

   total number of primitive shells          :   32
   total number of contracted shells         :   25
   total number of cartesian basis functions :   85
   total number of SCF-basis functions       :   71


 symmetry group of the molecule :   c1 

 the group has the following generators :
   c1(z)

    1 symmetry operations found

 there are 1 real representations :   a   

 maximum number of shells which are related by symmetry :  1


    mo occupation :
   irrep   mo's   occupied
    a       24        5
 
 number of basis functions   :           24
 number of occupied orbitals :            5
 
  
           ------------------
           density functional
           ------------------
 B-P86 functional
 exchange:    LDA + Becke (B88)
 correlation: LDA (VWN) + Perdew (P86)
 iterations will be done with small grid
  
 spherical integration : Lebedev's spherical grid
 spherical gridsize    :           4
    i.e. gridpoints    :         434
 value for diffuse not defined
 radial integration    : Chebyshev 2nd kind (scaling 3)
 radial gridsize       :           6
 integration cells     :           3
 partition function    : becke
 partition sharpness   :           3
  

 biggest AO integral is expected to be     4.776656448
  
           ------------------------
               RI-J - INFORMATION
           ------------------------
 Contributions to RI integral batches: 
  neglected integral batches:           0
  direct contribution:                  0
  memory contribution:          78
 Memory core needed for (P|Q) and Cholesky      1 MByte
 Memory core minimum needed except of (P|Q)     1 MByte
 Total minimum memory core needed (sum)         1 MByte
  
 ****************************************
 Memory allocated for RI-J     1 MByte
 ****************************************
                                            

          ------------------------
          nuclear repulsion energy  :   8.19247273353    
          ------------------------

 
          -----------------
          -S,T+V- integrals
          -----------------

 1e-integrals will be neglected if expon. factor < 0.133678E-09
 
   Difference densities algorithm switched on.
   The maximal number of linear combinations of
   difference densities is          20 .

 DIIS switched on: error vector is FDS-SDF
 Max. Iterations for DIIS is     :   4
 DIIS matrix (see manual) 
    Scaling factor of diagonals  :  1.200
    threshold for scaling factor :  0.000

 scf convergence criterion : increment of total energy < .1000000D-05
                  and increment of one-electron energy < .1000000D-02


 <geterg> : there is no data group $energy 

  MOs are in ASCII format !


 automatic virtual orbital shift switched on 
      shift if e(lumo)-e(homo) < 0.10000000    


 reading orbital data $scfmo  from file mos
 orbital characterization : scfconv=6

 DSCF restart information will be dumped onto file mos


 Starting SCF iterations

          Overall gridpoints after grid construction =          7363

 ITERATION  ENERGY          1e-ENERGY        2e-ENERGY     NORM[dD(SAO)]  TOL
   1  -76.105190873331    -120.86366776     36.566004148    0.000D+00 0.133D-08
                            Exc = -9.27558949436     Coul =  45.8415936428    
                              N = 10.000037580    
                            current damping = 0.700
 
          max. resid. norm for Fia-block=  2.203D-01 for orbital      3a         
          max. resid. fock norm         =  5.765D-01 for orbital     17a         

 ITERATION  ENERGY          1e-ENERGY        2e-ENERGY     NORM[dD(SAO)]  TOL
   2  -76.255651774566    -121.91685841     37.468733904    0.711D+00 0.913D-09
                            Exc = -9.35160997394     Coul =  46.8203438783    
                              N = 10.000035827    
                            current damping = 0.650
 
          Norm of current diis error: 0.37937    
          max. resid. norm for Fia-block=  1.190D-01 for orbital      4a         
          max. resid. fock norm         =  2.571D-01 for orbital     16a         

 ITERATION  ENERGY          1e-ENERGY        2e-ENERGY     NORM[dD(SAO)]  TOL
   3  -76.291674343028    -121.09601800     36.611870925    0.199D+00 0.701D-09
                            Exc = -9.22418684606     Coul =  45.8360577710    
                              N = 10.000029651    
                            current damping = 0.600
 
          Norm of current diis error: 0.19048    
          max. resid. norm for Fia-block=  4.160D-02 for orbital      4a         
          max. resid. fock norm         =  1.127D-01 for orbital     15a         

 ITERATION  ENERGY          1e-ENERGY        2e-ENERGY     NORM[dD(SAO)]  TOL
   4  -76.300452374889    -121.52595149     37.033026384    0.102D+00 0.626D-09
                            Exc = -9.27646116639     Coul =  46.3094875505    
                              N = 10.000030856    
                            current damping = 0.650
 
          Norm of current diis error: 0.59018E-01
          max. resid. norm for Fia-block=  1.665D-02 for orbital      4a         
          max. resid. fock norm         =  3.918D-02 for orbital     15a         

 ITERATION  ENERGY          1e-ENERGY        2e-ENERGY     NORM[dD(SAO)]  TOL
   5  -76.301263710426    -121.48751519     36.993778742    0.746D-02 0.582D-09
                            Exc = -9.27020220272     Coul =  46.2639809447    
                              N = 10.000030360    
                            current damping = 0.700
 
          Norm of current diis error: 0.20073E-01
          max. resid. norm for Fia-block=  6.453D-03 for orbital      4a         
          max. resid. fock norm         =  1.502D-02 for orbital     15a         
          mo-orthogonalization: Cholesky decomposition

 ITERATION  ENERGY          1e-ENERGY        2e-ENERGY     NORM[dD(SAO)]  TOL
   6  -76.301395008616    -121.48927005     36.995402305    0.147D-02 0.552D-09
                            Exc = -9.26989715650     Coul =  46.2652994617    
                              N = 10.000030259    
                            current damping = 0.750
 
          Norm of current diis error: 0.84786E-02
          max. resid. norm for Fia-block=  2.659D-03 for orbital      4a         
          max. resid. fock norm         =  6.085D-03 for orbital     15a         

 ITERATION  ENERGY          1e-ENERGY        2e-ENERGY     NORM[dD(SAO)]  TOL
   7  -76.301416288558    -121.48947729     36.995588263    0.370D-04 0.525D-09
                            Exc = -9.26972984270     Coul =  46.2653181058    
                              N = 10.000030215    
                            current damping = 0.600
 
          Norm of current diis error: 0.37059E-02
          max. resid. norm for Fia-block=  1.112D-03 for orbital      4a         
          max. resid. fock norm         =  2.583D-03 for orbital     15a         

 ITERATION  ENERGY          1e-ENERGY        2e-ENERGY     NORM[dD(SAO)]  TOL
   8  -76.301420314519    -121.49259453     36.998701479    0.428D-04 0.468D-09
                            Exc = -9.27006577167     Coul =  46.2687672507    
                              N = 10.000030210    
                            current damping = 0.450
 
          Norm of current diis error: 0.16228E-02
          max. resid. norm for Fia-block=  4.876D-04 for orbital      4a         
          max. resid. fock norm         =  9.760D-04 for orbital     15a         

 ENERGY CONVERGED !

          Overall gridpoints after grid construction =         28343

 ITERATION  ENERGY          1e-ENERGY        2e-ENERGY     NORM[dD(SAO)]  TOL
   9  -76.301366793132    -121.48902175     36.995182221    0.171D-04 0.484D-09
                            Exc = -9.26949956335     Coul =  46.2646817844    
                              N = 9.9999999494    
                            current damping = 0.500
 
          Norm of current diis error: 0.81850E-03
          max. resid. norm for Fia-block=  1.308D-04 for orbital      4a         
          max. resid. fock norm         =  3.019D-04 for orbital     15a         

 End of SCF iterations

   convergence criteria satisfied after    9 iterations


                  ------------------------------------------ 
                 |  total energy      =    -76.30136679313  |
                  ------------------------------------------ 
                 :  kinetic energy    =     75.38743072840  :
                 :  potential energy  =   -151.68879752154  :
                 :  virial theorem    =      1.98802202237  :
                 :  wavefunction norm =      1.00000000000  :
                  .......................................... 


 <geterg> : there is no data group $energy 


 <skperg> : $end is missing 


 orbitals $scfmo  will be written to file mos

    irrep                  1a          2a          3a          4a          5a   
 eigenvalues H        -18.73039    -0.81599    -0.47131    -0.21029    -0.20148
            eV        -509.6838    -22.2045    -12.8250     -5.7222     -5.4827
 occupation              2.0000      2.0000      2.0000      2.0000      2.0000 

    irrep                  6a          7a          8a          9a         10a   
 eigenvalues H         -0.02446     0.09510     0.37384     0.59593     0.87437
            eV          -0.6655      2.5878     10.1729     16.2163     23.7931
 
 
 
 
 ==============================================================================
                           electrostatic moments
 ==============================================================================

 reference point for electrostatic moments:    0.00000   0.00000   0.00000

 
              nuc           elec       ->  total
 ------------------------------------------------------------------------------
                          charge      
 ------------------------------------------------------------------------------
          10.000000     -10.000000      -0.000000
 
 ------------------------------------------------------------------------------
                       dipole moment  
 ------------------------------------------------------------------------------
   x     -56.636676      56.515677      -0.120999
   y      -3.858726       3.663257      -0.195469
   z      -0.665653       0.419636      -0.246017
 
   | dipole moment | =     0.3367 a.u. =     0.8558 debye 
 
 ------------------------------------------------------------------------------
                     quadrupole moment
 ------------------------------------------------------------------------------
  xx     322.820059    -325.771743      -2.951685
  yy       3.808554      -7.844972      -4.036418
  zz       3.735479      -7.181896      -3.446417
  xy      24.029725     -21.750064       2.279661
  xz       1.158523      -1.123454       0.035069
  yz      -2.455158       1.139848      -1.315310
 
     1/3  trace=      -3.478173
     anisotropy=       4.655011
 
 ==============================================================================
 


    ------------------------------------------------------------------------
         total  cpu-time :   0.24 seconds
         total wall-time :   0.24 seconds
    ------------------------------------------------------------------------

   ****  ridft : all done  ****


    2020-12-01 10:45:10.035 

--- PyADF *** new job *** PyADF ---
 operating system is UNIX !
 hostname is nitrogen02

 ridft (nitrogen02) : TURBOMOLE V7.1 ( 20661 ) 10 Jun 2016 at 08:56:48
 Copyright (C) 2016 TURBOMOLE GmbH, Karlsruhe


    2020-12-01 10:45:10.213 



                                  r i d f t

                        DFT program with RI approximation 
                                for coulomb part 




                                                 
                                 References:     
                                                 
          TURBOMOLE:                             
              R. Ahlrichs, M. Baer, M. Haeser, H. Horn, and
              C. Koelmel
              Electronic structure calculations on workstation
              computers: the program system TURBOMOLE
              Chem. Phys. Lett. 162: 165 (1989)
          Density Functional:                              
              O. Treutler and R. Ahlrichs                      
              Efficient Molecular Numerical Integration Schemes
              J. Chem. Phys. 102: 346 (1995)                   
          Parallel Version:                                
              Performance of parallel TURBOMOLE for Density    
              Functional Calculations                          
              M. v. Arnim and R. Ahlrichs                      
              J. Comp. Chem. 19: 1746 (1998)                   
          RI-J Method:                                     
              Auxiliary Basis Sets to approximate Coulomb      
              Potentials                                       
              Chem. Phys. Lett. 240: 283 (1995)                
              K. Eichkorn, O. Treutler, H. Oehm, M. Haeser     
              and R. Ahlrichs                                  
              Chem. Phys. Lett. 242: 652 (1995)                
                                                           
              Auxiliary Basis Sets for Main Row Atoms and their
              Use to approximate Coulomb Potentials            
              K. Eichkorn, F. Weigend, O. Treutler and         
              R. Ahlrichs                                      
              Theo. Chem. Acc. 97: 119 (1997)                   
                                                           
              Accurate Coulomb-fitting basis sets for H to Rn 
              F. Weigend                                        
              Phys. Chem. Chem. Phys. 8: 1057 (2006)            
                                                           
          Multipole accelerated RI-J (MARI-J):             
              Fast evaluation of the Coulomb potential for     
              electron densities using multipole accelerated   
              resolution of identity approximation             
              M. Sierka, A. Hogekamp and R. Ahlrichs           
              J. Chem. Phys. 118: 9136 (2003)                  
          RI-JK Method:                                     
              A fully direct RI-HF algorithm: Implementation,
              optimised auxiliary basis sets, demonstration of
              accuracy and efficiency                         
              F. Weigend                                      
              Phys. Chem. Chem. Phys. 4: 4285 (2002)           
          Two-component HF and DFT with spin-orbit coupling:  
              Self-consistent treatment of spin-orbit         
              interactions with efficient Hartree-Fock and    
              density functional methods                      
              M. K. Armbruster, F. Weigend, C. van Wüllen and 
              W. Klopper                                      
              Phys. Chem. Chem. Phys. 10: 1748 (2008)         
          Relativistic all-electron 2c calculations           
              An efficient implementation of two-component    
              relativistic exact-decoupling methods for large 
              molecules                                       
              D. Peng, N. Middendorf, F. Weigend, M. Reiher   
              J. Chem. Phys. 138, 184105 (2013)               
                                         


 


              +--------------------------------------------------+
              |      general information about current run       |
              +--------------------------------------------------+

 
 B-P86 functional
 exchange:    LDA + Becke (B88)
 correlation: LDA (VWN) + Perdew (P86)
 A DFT calculation using the RI-J approximation will be carried out.
 Allocatable memory for RI due to $ricore (MB):        2000


              +--------------------------------------------------+
              | Atomic coordinate, charge and isotop information |
              +--------------------------------------------------+

                    atomic coordinates            atom    charge  isotop
         -5.60343272   -0.27988476    0.10772619    o      8.000     0
         -5.11045509   -0.11739930   -2.67637485    h      1.000     0
         -6.94821859   -1.97353343    0.23389946    h      1.000     0
 
       center of nuclear mass  :   -5.65109195   -0.36555434   -0.04098660
       center of nuclear charge:   -5.68861354   -0.43300108   -0.15806659

              +--------------------------------------------------+
              |               basis set information              |
              +--------------------------------------------------+

              we will work with the 1s 3p 5d 7f 9g ... basis set
              ...i.e. with spherical basis functions...

   type   atoms  prim   cont   basis
   ---------------------------------------------------------------------------
    o        1     24     14   def2-SVP   [3s2p1d|7s4p1d]
    h        2      7      5   def2-SVP   [2s1p|4s1p]
   ---------------------------------------------------------------------------
   total:    3     38     24
   ---------------------------------------------------------------------------

   total number of primitive shells          :   17
   total number of contracted shells         :   12
   total number of cartesian basis functions :   25
   total number of SCF-basis functions       :   24


 integral neglect threshold       :  0.13E-08
 integral storage threshold THIZE :  0.10E-04
 integral storage threshold THIME :         5

 RI-J AUXILIARY BASIS SET information:

              we will work with the 1s 3p 5d 7f 9g ... basis set
              ...i.e. with spherical basis functions...

   type   atoms  prim   cont   basis
   ---------------------------------------------------------------------------
    o        1     70     49   def2-SVP   [6s4p3d1f1g|12s5p4d2f1g]
    h        2     16     11   def2-SVP   [3s1p1d|5s2p1d]
   ---------------------------------------------------------------------------
   total:    3    102     71
   ---------------------------------------------------------------------------

   total number of primitive shells          :   32
   total number of contracted shells         :   25
   total number of cartesian basis functions :   85
   total number of SCF-basis functions       :   71


 symmetry group of the molecule :   c1 

 the group has the following generators :
   c1(z)

    1 symmetry operations found

 there are 1 real representations :   a   

 maximum number of shells which are related by symmetry :  1


    mo occupation :
   irrep   mo's   occupied
    a       24        5
 
 number of basis functions   :           24
 number of occupied orbitals :            5
 
  
           ------------------
           density functional
           ------------------
 B-P86 functional
 exchange:    LDA + Becke (B88)
 correlation: LDA (VWN) + Perdew (P86)
 iterations will be done with small grid
  
 spherical integration : Lebedev's spherical grid
 spherical gridsize    :           4
    i.e. gridpoints    :         434
 value for diffuse not defined
 radial integration    : Chebyshev 2nd kind (scaling 3)
 radial gridsize       :           6
 integration cells     :           3
 partition function    : becke
 partition sharpness   :           3
  

 biggest AO integral is expected to be     4.776656448
  
           ------------------------
               RI-J - INFORMATION
           ------------------------
 Contributions to RI integral batches: 
  neglected integral batches:           0
  direct contribution:                  0
  memory contribution:          78
 Memory core needed for (P|Q) and Cholesky      1 MByte
[...]
                           electrostatic moments
 ==============================================================================

 reference point for electrostatic moments:    0.00000   0.00000   0.00000

 
              nuc           elec       ->  total
 ------------------------------------------------------------------------------
                          charge      
 ------------------------------------------------------------------------------
          10.000000     -10.000000       0.000000
 
 ------------------------------------------------------------------------------
                       dipole moment  
 ------------------------------------------------------------------------------
   x     -57.360612      57.041530      -0.319082
   y      -4.925869       4.403394      -0.522474
   z      -1.525806       0.835188      -0.690618
 
   | dipole moment | =     0.9229 a.u. =     2.3458 debye 
 
 ------------------------------------------------------------------------------
                     quadrupole moment
 ------------------------------------------------------------------------------
  xx     331.777944    -333.066135      -1.288190
  yy       7.360346     -11.237195      -3.876849
  zz       3.791739      -7.909436      -4.117697
  xy      31.906478     -27.812666       4.093811
  xz       9.586881      -5.407097       4.179784
  yz       2.411865      -1.552088       0.859777
 
     1/3  trace=      -3.094245
     anisotropy=      10.596695
 
 ==============================================================================
 


    ------------------------------------------------------------------------
         total  cpu-time :   0.20 seconds
         total wall-time :   0.20 seconds
    ------------------------------------------------------------------------

   ****  ridft : all done  ****


    2020-12-01 10:45:35.014 

--- PyADF *** new job *** PyADF ---
 operating system is UNIX !
 hostname is nitrogen02

 ridft (nitrogen02) : TURBOMOLE V7.1 ( 20661 ) 10 Jun 2016 at 08:56:48
 Copyright (C) 2016 TURBOMOLE GmbH, Karlsruhe


    2020-12-01 10:45:35.204 



                                  r i d f t

                        DFT program with RI approximation 
                                for coulomb part 




                                                 
                                 References:     
                                                 
          TURBOMOLE:                             
              R. Ahlrichs, M. Baer, M. Haeser, H. Horn, and
              C. Koelmel
              Electronic structure calculations on workstation
              computers: the program system TURBOMOLE
              Chem. Phys. Lett. 162: 165 (1989)
          Density Functional:                              
              O. Treutler and R. Ahlrichs                      
              Efficient Molecular Numerical Integration Schemes
              J. Chem. Phys. 102: 346 (1995)                   
          Parallel Version:                                
              Performance of parallel TURBOMOLE for Density    
              Functional Calculations                          
              M. v. Arnim and R. Ahlrichs                      
              J. Comp. Chem. 19: 1746 (1998)                   
          RI-J Method:                                     
              Auxiliary Basis Sets to approximate Coulomb      
              Potentials                                       
              Chem. Phys. Lett. 240: 283 (1995)                
              K. Eichkorn, O. Treutler, H. Oehm, M. Haeser     
              and R. Ahlrichs                                  
              Chem. Phys. Lett. 242: 652 (1995)                
                                                           
              Auxiliary Basis Sets for Main Row Atoms and their
              Use to approximate Coulomb Potentials            
              K. Eichkorn, F. Weigend, O. Treutler and         
              R. Ahlrichs                                      
              Theo. Chem. Acc. 97: 119 (1997)                   
                                                           
              Accurate Coulomb-fitting basis sets for H to Rn 
              F. Weigend                                        
              Phys. Chem. Chem. Phys. 8: 1057 (2006)            
                                                           
          Multipole accelerated RI-J (MARI-J):             
              Fast evaluation of the Coulomb potential for     
              electron densities using multipole accelerated   
              resolution of identity approximation             
              M. Sierka, A. Hogekamp and R. Ahlrichs           
              J. Chem. Phys. 118: 9136 (2003)                  
          RI-JK Method:                                     
              A fully direct RI-HF algorithm: Implementation,
              optimised auxiliary basis sets, demonstration of
              accuracy and efficiency                         
              F. Weigend                                      
              Phys. Chem. Chem. Phys. 4: 4285 (2002)           
          Two-component HF and DFT with spin-orbit coupling:  
              Self-consistent treatment of spin-orbit         
              interactions with efficient Hartree-Fock and    
              density functional methods                      
              M. K. Armbruster, F. Weigend, C. van Wüllen and 
              W. Klopper                                      
              Phys. Chem. Chem. Phys. 10: 1748 (2008)         
          Relativistic all-electron 2c calculations           
              An efficient implementation of two-component    
              relativistic exact-decoupling methods for large 
              molecules                                       
              D. Peng, N. Middendorf, F. Weigend, M. Reiher   
              J. Chem. Phys. 138, 184105 (2013)               
                                         


 


              +--------------------------------------------------+
              |      general information about current run       |
              +--------------------------------------------------+

 
 B-P86 functional
 exchange:    LDA + Becke (B88)
 correlation: LDA (VWN) + Perdew (P86)
 A DFT calculation using the RI-J approximation will be carried out.
 Allocatable memory for RI due to $ricore (MB):        2000


              +--------------------------------------------------+
              | Atomic coordinate, charge and isotop information |
              +--------------------------------------------------+

                    atomic coordinates            atom    charge  isotop
         -5.59960110   -0.29538701   -0.01403947    o      8.000     0
         -4.75575595    0.50928994   -1.63463607    h      1.000     0
         -7.36371726   -2.35421321    1.12465768    h      1.000     0
 
       center of nuclear mass  :   -5.65109087   -0.36555748   -0.04100206
       center of nuclear charge:   -5.69162820   -0.42080194   -0.06222942

              +--------------------------------------------------+
              |               basis set information              |
              +--------------------------------------------------+

              we will work with the 1s 3p 5d 7f 9g ... basis set
              ...i.e. with spherical basis functions...

   type   atoms  prim   cont   basis
   ---------------------------------------------------------------------------
    o        1     24     14   def2-SVP   [3s2p1d|7s4p1d]
    h        2      7      5   def2-SVP   [2s1p|4s1p]
   ---------------------------------------------------------------------------
   total:    3     38     24
   ---------------------------------------------------------------------------

   total number of primitive shells          :   17
   total number of contracted shells         :   12
   total number of cartesian basis functions :   25
   total number of SCF-basis functions       :   24


 integral neglect threshold       :  0.13E-08
 integral storage threshold THIZE :  0.10E-04
 integral storage threshold THIME :         5

 RI-J AUXILIARY BASIS SET information:

              we will work with the 1s 3p 5d 7f 9g ... basis set
              ...i.e. with spherical basis functions...

   type   atoms  prim   cont   basis
   ---------------------------------------------------------------------------
    o        1     70     49   def2-SVP   [6s4p3d1f1g|12s5p4d2f1g]
    h        2     16     11   def2-SVP   [3s1p1d|5s2p1d]
   ---------------------------------------------------------------------------
   total:    3    102     71
   ---------------------------------------------------------------------------

   total number of primitive shells          :   32
   total number of contracted shells         :   25
   total number of cartesian basis functions :   85
   total number of SCF-basis functions       :   71


 symmetry group of the molecule :   c1 

 the group has the following generators :
   c1(z)

    1 symmetry operations found

 there are 1 real representations :   a   

 maximum number of shells which are related by symmetry :  1


    mo occupation :
   irrep   mo's   occupied
    a       24        5
 
 number of basis functions   :           24
 number of occupied orbitals :            5
 
  
           ------------------
           density functional
           ------------------
 B-P86 functional
 exchange:    LDA + Becke (B88)
 correlation: LDA (VWN) + Perdew (P86)
 iterations will be done with small grid
  
 spherical integration : Lebedev's spherical grid
 spherical gridsize    :           4
    i.e. gridpoints    :         434
 value for diffuse not defined
 radial integration    : Chebyshev 2nd kind (scaling 3)
 radial gridsize       :           6
 integration cells     :           3
 partition function    : becke
 partition sharpness   :           3
  

 biggest AO integral is expected to be     4.776656448
  
           ------------------------
               RI-J - INFORMATION
           ------------------------
 Contributions to RI integral batches: 
  neglected integral batches:           0
  direct contribution:                  0
  memory contribution:          78
 Memory core needed for (P|Q) and Cholesky      1 MByte
 Memory core minimum needed except of (P|Q)     1 MByte
 Total minimum memory core needed (sum)         1 MByte
  
 ****************************************
 Memory allocated for RI-J     1 MByte
 ****************************************
                                            

          ------------------------
          nuclear repulsion energy  :   6.93781924811    
          ------------------------

 
          -----------------
          -S,T+V- integrals
          -----------------

 1e-integrals will be neglected if expon. factor < 0.133678E-09
 
   Difference densities algorithm switched on.
   The maximal number of linear combinations of
   difference densities is          20 .

 DIIS switched on: error vector is FDS-SDF
 Max. Iterations for DIIS is     :   4
 DIIS matrix (see manual) 
    Scaling factor of diagonals  :  1.200
    threshold for scaling factor :  0.000

 scf convergence criterion : increment of total energy < .1000000D-05
                  and increment of one-electron energy < .1000000D-02


 <geterg> : there is no data group $energy 

  MOs are in ASCII format !


 automatic virtual orbital shift switched on 
      shift if e(lumo)-e(homo) < 0.10000000    


 reading orbital data $scfmo  from file mos
 orbital characterization : scfconv=6

 DSCF restart information will be dumped onto file mos


 Starting SCF iterations

          Overall gridpoints after grid construction =          7374

 ITERATION  ENERGY          1e-ENERGY        2e-ENERGY     NORM[dD(SAO)]  TOL
   1  -76.125070817046    -118.48293771     35.420047643    0.000D+00 0.133D-08
                            Exc = -9.14915359103     Coul =  44.5692012336    
                              N = 10.000060155    
                            current damping = 0.700
 
          max. resid. norm for Fia-block=  1.406D-01 for orbital      3a         
          max. resid. fock norm         =  5.329D-01 for orbital     21a         

 ITERATION  ENERGY          1e-ENERGY        2e-ENERGY     NORM[dD(SAO)]  TOL
   2  -76.184486277231    -119.67388108     36.551575554    0.435D+00 0.866D-09
                            Exc = -9.25372994225     Coul =  45.8053054962    
                              N = 10.000060626    
                            current damping = 0.650
 
          Norm of current diis error: 0.35409    
          max. resid. norm for Fia-block=  9.179D-02 for orbital      4a         
          max. resid. fock norm         =  3.340D-01 for orbital     23a         
          irrep a   : virtual orbitals shifted by    0.01866

 ITERATION  ENERGY          1e-ENERGY        2e-ENERGY     NORM[dD(SAO)]  TOL
   3  -76.196692086358    -118.11257038     34.978059049    0.289D+00 0.765D-09
                            Exc = -9.07029378606     Coul =  44.0483528356    
                              N = 10.000056970    
                            current damping = 0.600
 
          Norm of current diis error: 0.28898    
          max. resid. norm for Fia-block=  3.051D-02 for orbital      4a         
          max. resid. fock norm         =  1.007D-01 for orbital     23a         
          irrep a   : virtual orbitals shifted by    0.00947

 ITERATION  ENERGY          1e-ENERGY        2e-ENERGY     NORM[dD(SAO)]  TOL
   4  -76.210638013956    -118.92074056     35.772283300    0.751D-01 0.668D-09
                            Exc = -9.15672988964     Coul =  44.9290131896    
                              N = 10.000058759    
                            current damping = 0.650
 
          Norm of current diis error: 0.38025E-01
          max. resid. norm for Fia-block=  1.018D-02 for orbital      4a         
          max. resid. fock norm         =  3.136D-02 for orbital     23a         
          irrep a   : virtual orbitals shifted by    0.00862

 ITERATION  ENERGY          1e-ENERGY        2e-ENERGY     NORM[dD(SAO)]  TOL
   5  -76.210964921164    -118.94928248     35.800498316    0.108D-01 0.617D-09
                            Exc = -9.15889763663     Coul =  44.9593959523    
                              N = 10.000058750    
                            current damping = 0.500
 
          Norm of current diis error: 0.16144E-01
          max. resid. norm for Fia-block=  4.453D-03 for orbital      4a         
          max. resid. fock norm         =  1.214D-02 for orbital     23a         
          irrep a   : virtual orbitals shifted by    0.01973
          mo-orthogonalization: Cholesky decomposition

 ITERATION  ENERGY          1e-ENERGY        2e-ENERGY     NORM[dD(SAO)]  TOL
   6  -76.211025898623    -118.92746666     35.778621512    0.301D-02 0.584D-09
                            Exc = -9.15639316928     Coul =  44.9350146808    
                              N = 10.000058721    
                            current damping = 0.550
 
          Norm of current diis error: 0.51640E-02
          max. resid. norm for Fia-block=  1.520D-03 for orbital      4a         
          max. resid. fock norm         =  3.977D-03 for orbital     15a         
          irrep a   : virtual orbitals shifted by    0.01757

 ITERATION  ENERGY          1e-ENERGY        2e-ENERGY     NORM[dD(SAO)]  TOL
   7  -76.211032814672    -118.92897584     35.780123775    0.531D-03 0.564D-09
                            Exc = -9.15631420102     Coul =  44.9364379757    
                              N = 10.000058709    
                            current damping = 0.600
 
          Norm of current diis error: 0.18598E-02
          max. resid. norm for Fia-block=  5.341D-04 for orbital      4a         
          max. resid. fock norm         =  1.399D-03 for orbital     23a         
          irrep a   : virtual orbitals shifted by    0.01521

 ENERGY CONVERGED !

          Overall gridpoints after grid construction =         28376

 ITERATION  ENERGY          1e-ENERGY        2e-ENERGY     NORM[dD(SAO)]  TOL
   8  -76.210977018046    -118.92694695     35.778150681    0.607D-04 0.547D-09
                            Exc = -9.15601975307     Coul =  44.9341704343    
                              N = 10.000000106    
                            current damping = 0.650
 
          Norm of current diis error: 0.67248E-03
          max. resid. norm for Fia-block=  1.984D-04 for orbital      4a         
          max. resid. fock norm         =  5.333D-04 for orbital     15a         

 End of SCF iterations

   convergence criteria satisfied after    8 iterations


                  ------------------------------------------ 
                 |  total energy      =    -76.21097701805  |
                  ------------------------------------------ 
                 :  kinetic energy    =     75.32689271254  :
                 :  potential energy  =   -151.53786973059  :
                 :  virial theorem    =      1.98839951487  :
                 :  wavefunction norm =      1.00000000000  :
                  .......................................... 


 <geterg> : there is no data group $energy 


 <skperg> : $end is missing 


 orbitals $scfmo  will be written to file mos

    irrep                  1a          2a          3a          4a          5a   
 eigenvalues H        -18.76329    -0.80250    -0.40429    -0.23095    -0.20302
            eV        -510.5791    -21.8373    -11.0013     -6.2844     -5.5245
 occupation              2.0000      2.0000      2.0000      2.0000      2.0000 

    irrep                  6a          7a          8a          9a         10a   
 eigenvalues H         -0.15006     0.05650     0.37781     0.51258     0.85950
            eV          -4.0834      1.5375     10.2809     13.9482     23.3883
 
 
 
 
 ==============================================================================
                           electrostatic moments
 ==============================================================================

 reference point for electrostatic moments:    0.00000   0.00000   0.00000

 
              nuc           elec       ->  total
 ------------------------------------------------------------------------------
                          charge      
 ------------------------------------------------------------------------------
          10.000000     -10.000000       0.000000
 
 ------------------------------------------------------------------------------
                       dipole moment  
 ------------------------------------------------------------------------------
   x     -56.916282      56.718645      -0.197637
   y      -4.208019       3.915536      -0.292483
   z      -0.622294       0.380533      -0.241761
 
   | dipole moment | =     0.4278 a.u. =     1.0875 debye 
 
 ------------------------------------------------------------------------------
                     quadrupole moment
 ------------------------------------------------------------------------------
  xx     327.685807    -329.678721      -1.992915
  yy       6.499724     -10.134619      -3.634895
  zz       3.938467      -7.850917      -3.912450
  xy      28.146097     -24.805205       3.340893
  xz       0.121193      -0.092637       0.028556
  yz      -3.447011       2.122394      -1.324617
 
     1/3  trace=      -3.180087
     anisotropy=       6.479186
 
 ==============================================================================
 


    ------------------------------------------------------------------------
         total  cpu-time :   0.22 seconds
         total wall-time :   0.22 seconds
    ------------------------------------------------------------------------

   ****  ridft : all done  ****


    2020-12-01 10:45:35.424 

